
                                 *****************
                                 * O   R   C   A *
                                 *****************

                                            #,                                       
                                            ###                                      
                                            ####                                     
                                            #####                                    
                                            ######                                   
                                           ########,                                 
                                     ,,################,,,,,                         
                               ,,#################################,,                 
                          ,,##########################################,,             
                       ,#########################################, ''#####,          
                    ,#############################################,,   '####,        
                  ,##################################################,,,,####,       
                ,###########''''           ''''###############################       
              ,#####''   ,,,,##########,,,,          '''####'''          '####       
            ,##' ,,,,###########################,,,                        '##       
           ' ,,###''''                  '''############,,,                           
         ,,##''                                '''############,,,,        ,,,,,,###''
      ,#''                                            '''#######################'''  
     '                                                          ''''####''''         
             ,#######,   #######,   ,#######,      ##                                
            ,#'     '#,  ##    ##  ,#'     '#,    #''#        ,####,   ,####,        
            ##       ##  ##   ,#'  ##            #'  '#       #'       #'  '#        
            ##       ##  #######   ##           ,######,      #####,   #    #        
            '#,     ,#'  ##    ##  '#,     ,#' ,#      #,     #,   #   #,  ,#        
             '#######'   ##     ##  '#######'  #'      '#     '####' # '####'        



                #########################################################
                #                        -***-                          #
                #          Department of theory and spectroscopy        #
                #                                                       #
                #                      Frank Neese                      #
                #                                                       #
                #     Directorship, Architecture, Infrastructure        #
                #                    SHARK, DRIVERS                     #
                #        Core code/Algorithms in most modules           #
                #                                                       #
                #        Max Planck Institute fuer Kohlenforschung      #
                #                Kaiser Wilhelm Platz 1                 #
                #                 D-45470 Muelheim/Ruhr                 #
                #                      Germany                          #
                #                                                       #
                #                  All rights reserved                  #
                #                        -***-                          #
                #########################################################


                         Program Version 6.0.0  -   RELEASE  -


 With contributions from (in alphabetic order):
   Daniel Aravena         : Magnetic Suceptibility
   Michael Atanasov       : Ab Initio Ligand Field Theory (pilot matlab implementation)
   Alexander A. Auer      : GIAO ZORA, VPT2 properties, NMR spectrum
   Ute Becker             : All parallelization in ORCA, NUMFREQ, NUMCALC
   Giovanni Bistoni       : ED, misc. LED, open-shell LED, HFLD
   Martin Brehm           : Molecular dynamics
   Dmytro Bykov           : pre 5.0 version of the SCF Hessian
   Marcos Casanova-Páez   : Triplet and SCS-CIS(D). UHF-(DLPNO)-IP/EA/STEOM-CCSD. UHF-CVS-IP/STEOM-CCSD
   Vijay G. Chilkuri      : MRCI spin determinant printing, contributions to CSF-ICE
   Pauline Colinet        : FMM embedding
   Dipayan Datta          : RHF DLPNO-CCSD density
   Achintya Kumar Dutta   : EOM-CC, STEOM-CC
   Nicolas Foglia         : Exact transition moments, OPA infrastructure, MCD improvements
   Dmitry Ganyushin       : Spin-Orbit,Spin-Spin,Magnetic field MRCI
   Miquel Garcia          : C-PCM and meta-GGA Hessian, CCSD/C-PCM, Gaussian charge scheme
   Tiago L. C. Gouveia    : GS-ROHF, GS-ROCIS
   Yang Guo               : DLPNO-NEVPT2, F12-NEVPT2, CIM, IAO-localization
   Andreas Hansen         : Spin unrestricted coupled pair/coupled cluster methods
   Ingolf Harden          : AUTO-CI MPn and infrastructure 
   Benjamin Helmich-Paris : MC-RPA, TRAH-(SCF,CASSCF), AVAS, COSX integrals, SCF dyn. polar.
   Lee Huntington         : MR-EOM, pCC
   Robert Izsak           : Overlap fitted RIJCOSX, COSX-SCS-MP3, EOM
   Riya Kayal             : Wick's Theorem for AUTO-CI, AUTO-CI UHF-CCSDT
   Emily Kempfer          : AUTO-CI, RHF CISDT and CCSDT
   Christian Kollmar      : KDIIS, OOCD, Brueckner-CCSD(T), CCSD density, CASPT2, CASPT2-K, improved NEVPT2
   Axel Koslowski         : Symmetry handling
   Simone Kossmann        : Meta GGA functionals, TD-DFT gradient, OOMP2, (MP2 Hessian; deprecated post 5.0)
   Lucas Lang             : DCDCAS
   Marvin Lechner         : AUTO-CI (C++ implementation), FIC-MRCC
   Spencer Leger          : CASSCF response
   Dagmar Lenk            : GEPOL surface, SMD, ORCA-2-JSON
   Dimitrios Liakos       : Extrapolation schemes; Compound Job, initial MDCI parallelization
   Dimitrios Manganas     : Further ROCIS development; embedding schemes. LFT, Crystal Embedding
   Dimitrios Pantazis     : SARC Basis sets
   Anastasios Papadopoulos: AUTO-CI, single reference methods and gradients
   Taras Petrenko         : pre 6.0 DFT Hessian and TD-DFT gradient, (ASA, deprecated), ECA, 1-Electron XAS/XES, NRVS
   Peter Pinski           : DLPNO-MP2, DLPNO-MP2 Gradient
   Christoph Reimann      : Effective Core Potentials
   Marius Retegan         : Local ZFS, SOC
   Christoph Riplinger    : Optimizer, TS searches, QM/MM, DLPNO-CCSD(T), (RO)-DLPNO pert. Triples
   Michael Roemelt        : Original ROCIS implementation
   Masaaki Saitow         : Open-shell DLPNO-CCSD energy and density
   Barbara Sandhoefer     : DKH picture change effects
   Kantharuban Sivalingam : CASSCF convergence/infrastructure, NEVPT2 and variants, FIC-MRCI
   Bernardo de Souza      : ESD, SOC TD-DFT
   Georgi Stoychev        : AutoAux, RI-MP2 NMR, DLPNO-MP2 response, X2C
   Van Anh Tran           : RI-MP2 g-tensors
   Willem Van den Heuvel  : Paramagnetic NMR
   Zikuan Wang            : NOTCH, Electric field optimization 
   Frank Wennmohs         : Technical directorship and infrastructure
   Hang Xu                : AUTO-CI-Response properties 


 We gratefully acknowledge several colleagues who have allowed us to
 interface, adapt or use parts of their codes:
   Stefan Grimme, W. Hujo, H. Kruse, P. Pracht,  : VdW corrections, initial TS optimization,
                  C. Bannwarth, S. Ehlert,         DFT functionals, gCP, sTDA/sTD-DF
                  L. Wittmann, M. Mueller
   Ed Valeev, F. Pavosevic, A. Kumar             : LibInt (2-el integral package), F12 methods
   Garnet Chan, S. Sharma, J. Yang, R. Olivares  : DMRG
   Ulf Ekstrom                                   : XCFun DFT Library
   Mihaly Kallay                                 : mrcc  (arbitrary order and MRCC methods)
   Frank Weinhold                                : gennbo (NPA and NBO analysis)
   Simon Mueller                                 : openCOSMO-RS
   Christopher J. Cramer and Donald G. Truhlar   : smd solvation model
   Lars Goerigk                                  : TD-DFT with DH, B97 family of functionals
   V. Asgeirsson, H. Jonsson                     : NEB implementation
   FAccTs GmbH                                   : IRC, NEB, NEB-TS, DLPNO-Multilevel, CI-OPT
                                                   MM, QMMM, 2- and 3-layer-ONIOM, Crystal-QMMM,
                                                   LR-CPCM, SF, NACMEs, symmetry and pop. for TD-DFT,
                                                   nearIR, NL-DFT gradient (VV10), updates on ESD,
                                                   ML-optimized integration grids, MBIS, APM,
                                                   GOAT, DOCKER, SOLVATOR, interface openCOSMO-RS
   S Lehtola, MJT Oliveira, MAL Marques          : LibXC Library
   Liviu Ungur et al                             : ANISO software


 Your calculation uses the libint2 library for the computation of 2-el integrals
 For citations please refer to: http://libint.valeyev.net

 Your ORCA version has been built with support for libXC version: 6.2.2
 For citations please refer to: https://libxc.gitlab.io

 This ORCA versions uses:
   CBLAS   interface :  Fast vector & matrix operations
   LAPACKE interface :  Fast linear algebra routines
   SCALAPACK package :  Parallel linear algebra routines
   Shared memory     :  Shared parallel matrices
   BLAS/LAPACK       :  OpenBLAS 0.3.27  USE64BITINT DYNAMIC_ARCH NO_AFFINITY Sandybridge SINGLE_THREADED
        Core in use  :  Sandybridge
   Copyright (c) 2011-2014, The OpenBLAS Project


NOTE: MaxCore=3500 MB was set to SCF,MP2,MDCI,CIPSI,MRCI and CIS
      => If you want to overwrite this, your respective input block should be placed after the MaxCore statement
Your calculation utilizes the atom-pairwise dispersion correction
with the Becke-Johnson damping scheme (D3BJ)


Warning: RI is on but no J-basis has been assigned. Assigning Def2/J (nothing to worry about!)
================================================================================

----- Orbital basis set information -----
Your calculation utilizes the basis: def2-SV(P)
   F. Weigend and R. Ahlrichs, Phys. Chem. Chem. Phys. 7, 3297 (2005).

----- AuxJ basis set information -----
Your calculation utilizes the auxiliary basis: def2/J
   F. Weigend, Phys. Chem. Chem. Phys. 8, 1057 (2006).

================================================================================
                                        WARNINGS
                       Please study these warnings very carefully!
================================================================================


================================================================================
                                       INPUT FILE
================================================================================
NAME = CS_PdOAc_005_freq_01.inp
|  1> !PBE0 def2-SV(p) freq d3 TightSCF SlowConv RIJCOSX defgrid2
|  2> 
|  3> %pal
|  4> nprocs 4
|  5> nprocs_group 2
|  6> end
|  7> 
|  8> %scf
|  9> MaxIter 1500
| 10> end
| 11> 
| 12> %maxcore 3500
| 13> 
| 14>  
| 15> 
| 16> * xyz -1 1
| 17>   O           0.04097369729735      0.11058448016261      0.10410501105795
| 18>   C           0.91129366911499     -0.72990183455175      0.40525987097505
| 19>   O           2.07191816196502     -0.86685276981809     -0.02560522284868
| 20>   C           0.46292092331661     -1.75834321798077      1.50368886391921
| 21>   H           0.23993789866618     -1.22049979178529      2.44613361176739
| 22>   H          -0.47945344012185     -2.25187814320855      1.19633043901367
| 23>   H           1.23604429576170     -2.52416776681814      1.69809167311541
| 24> *
| 25> 
| 26>                          ****END OF INPUT****
================================================================================

                       ****************************
                       * Single Point Calculation *
                       ****************************

---------------------------------
CARTESIAN COORDINATES (ANGSTROEM)
---------------------------------
  O      0.040974    0.110584    0.104105
  C      0.911294   -0.729902    0.405260
  O      2.071918   -0.866853   -0.025605
  C      0.462921   -1.758343    1.503689
  H      0.239938   -1.220500    2.446134
  H     -0.479453   -2.251878    1.196330
  H      1.236044   -2.524168    1.698092

----------------------------
CARTESIAN COORDINATES (A.U.)
----------------------------
  NO LB      ZA    FRAG     MASS         X           Y           Z
   0 O     8.0000    0    15.999    0.077429    0.208974    0.196730
   1 C     6.0000    0    12.011    1.722095   -1.379315    0.765830
   2 O     8.0000    0    15.999    3.915358   -1.638114   -0.048387
   3 C     6.0000    0    12.011    0.874794   -3.322787    2.841560
   4 H     1.0000    0     1.008    0.453417   -2.306410    4.622523
   5 H     1.0000    0     1.008   -0.906036   -4.255433    2.260737
   6 H     1.0000    0     1.008    2.335785   -4.769986    3.208928

--------------------------------
INTERNAL COORDINATES (ANGSTROEM)
--------------------------------
 O      0   0   0     0.000000000000     0.00000000     0.00000000
 C      1   0   0     1.246823302725     0.00000000     0.00000000
 O      2   1   0     1.245571957435   129.86569333     0.00000000
 C      2   1   3     1.570119756854   114.27926988   179.50989176
 H      4   2   1     1.107790180102   109.55020029   297.74500996
 H      4   2   1     1.107300936804   109.92499493    54.24288355
 H      4   2   1     1.105440835525   112.15320431   176.42413643

---------------------------
INTERNAL COORDINATES (A.U.)
---------------------------
 O      0   0   0     0.000000000000     0.00000000     0.00000000
 C      1   0   0     2.356154579542     0.00000000     0.00000000
 O      2   1   0     2.353789879645   129.86569333     0.00000000
 C      2   1   3     2.967096337914   114.27926988   179.50989176
 H      4   2   1     2.093420054240   109.55020029   297.74500996
 H      4   2   1     2.092495518393   109.92499493    54.24288355
 H      4   2   1     2.088980436395   112.15320431   176.42413643

---------------------
BASIS SET INFORMATION
---------------------
There are 3 groups of distinct atoms

 Group   1 Type O   : 7s4p1d contracted to 3s2p1d pattern {511/31/1}
 Group   2 Type C   : 7s4p1d contracted to 3s2p1d pattern {511/31/1}
 Group   3 Type H   : 4s contracted to 2s pattern {31}

Atom   0O    basis set group =>   1
Atom   1C    basis set group =>   2
Atom   2O    basis set group =>   1
Atom   3C    basis set group =>   2
Atom   4H    basis set group =>   3
Atom   5H    basis set group =>   3
Atom   6H    basis set group =>   3
---------------------------------
AUXILIARY/J BASIS SET INFORMATION
---------------------------------
There are 3 groups of distinct atoms

 Group   1 Type O   : 12s5p4d2f1g contracted to 6s4p3d1f1g pattern {711111/2111/211/2/1}
 Group   2 Type C   : 12s5p4d2f1g contracted to 6s4p3d1f1g pattern {711111/2111/211/2/1}
 Group   3 Type H   : 5s2p1d contracted to 3s1p1d pattern {311/2/1}

Atom   0O    basis set group =>   1
Atom   1C    basis set group =>   2
Atom   2O    basis set group =>   1
Atom   3C    basis set group =>   2
Atom   4H    basis set group =>   3
Atom   5H    basis set group =>   3
Atom   6H    basis set group =>   3


           ************************************************************
           *        Program running with 4 parallel MPI-processes     *
           *              working on a common directory               *
           ************************************************************
------------------------------------------------------------------------------
                             ORCA STARTUP CALCULATIONS
                           -- RI-GTO INTEGRALS CHOSEN --
------------------------------------------------------------------------------
------------------------------------------------------------------------------
                   ___                                                        
                  /   \      - P O W E R E D   B Y -                         
                 /     \                                                     
                 |  |  |   _    _      __       _____    __    __             
                 |  |  |  | |  | |    /  \     |  _  \  |  |  /  |          
                  \  \/   | |  | |   /    \    | | | |  |  | /  /          
                 / \  \   | |__| |  /  /\  \   | |_| |  |  |/  /          
                |  |  |   |  __  | /  /__\  \  |    /   |      \           
                |  |  |   | |  | | |   __   |  |    \   |  |\   \          
                \     /   | |  | | |  |  |  |  | |\  \  |  | \   \       
                 \___/    |_|  |_| |__|  |__|  |_| \__\ |__|  \__/        
                                                                              
                      - O R C A' S   B I G   F R I E N D -                    
                                      &                                       
                       - I N T E G R A L  F E E D E R -                       
                                                                              
 v1 FN, 2020, v2 2021, v3 2022-2024                                           
------------------------------------------------------------------------------


----------------------
SHARK INTEGRAL PACKAGE
----------------------

Number of atoms                             ...      7
Number of basis functions                   ...     62
Number of shells                            ...     30
Maximum angular momentum                    ...      2
Integral batch strategy                     ... SHARK/LIBINT Hybrid
RI-J (if used) integral strategy            ... SPLIT-RIJ (Revised 2003 algorithm where possible)
Printlevel                                  ...      1
Contraction scheme used                     ... SEGMENTED contraction
Prescreening option                         ... SCHWARTZ
   Thresh                                   ... 2.500e-11
   Tcut                                     ... 2.500e-12
   Tpresel                                  ... 2.500e-12 
Coulomb Range Separation                    ... NOT USED
Exchange Range Separation                   ... NOT USED
Multipole approximations                    ... NOT USED
Finite Nucleus Model                        ... NOT USED
CABS basis                                  ... NOT available
Auxiliary Coulomb fitting basis             ... AVAILABLE
   # of basis functions in Aux-J            ...    229
   # of shells in Aux-J                     ...     75
   Maximum angular momentum in Aux-J        ...      4
Auxiliary J/K fitting basis                 ... NOT available
Auxiliary Correlation fitting basis         ... NOT available
Auxiliary 'external' fitting basis          ... NOT available

Checking pre-screening integrals            ... done (  0.0 sec) Dimension = 30
Check shell pair data                       ... done (  0.0 sec)
Shell pair information
Shell pair cut-off parameter TPreSel        ...   2.5e-12
Total number of shell pairs                 ...       465
Shell pairs after pre-screening             ...       462
Total number of primitive shell pairs       ...      1891
Primitive shell pairs kept                  ...      1522
          la=0 lb=0:    168 shell pairs
          la=1 lb=0:    144 shell pairs
          la=1 lb=1:     36 shell pairs
          la=2 lb=0:     72 shell pairs
          la=2 lb=1:     32 shell pairs
          la=2 lb=2:     10 shell pairs

Calculating one electron integrals          ... done (  0.0 sec)
Calculating RI/J V-Matrix + Cholesky decomp.... done (  0.0 sec)
Calculating Nuclear repulsion               ... done (  0.0 sec) ENN=    111.838153434439 Eh

Diagonalization of the overlap matrix:
Smallest eigenvalue                        ... 5.193e-03
Time for diagonalization                   ...    0.001 sec
Threshold for overlap eigenvalues          ... 1.000e-07
Number of eigenvalues below threshold      ... 0
Time for construction of square roots      ...    0.012 sec
Total time needed                          ...    0.035 sec

-------------------
DFT GRID GENERATION
-------------------

General Integration Accuracy     IntAcc      ... 4.388
Radial Grid Type                 RadialGrid  ... OptM3 with GC (2021)
Angular Grid (max. ang.)         AngularGrid ... 4 (Lebedev-302)
Angular grid pruning method      GridPruning ... 4 (adaptive)
Weight generation scheme         WeightScheme... mBecke (2022)
Basis function cutoff            BFCut       ... 1.0000e-11
Integration weight cutoff        WCut        ... 1.0000e-14
Partially contracted basis set               ... off
Rotationally invariant grid construction     ... off
Angular grids for H and He will be reduced by one unit

Total number of grid points                  ...    34213
Total number of batches                      ...      539
Average number of points per batch           ...       63
Average number of grid points per atom       ...     4888

--------------------
COSX GRID GENERATION
--------------------

GRIDX 1
-------
General Integration Accuracy     IntAcc      ... 3.816
Radial Grid Type                 RadialGrid  ... OptM3 with GC (2021)
Angular Grid (max. ang.)         AngularGrid ... 1 (Lebedev-50)
Angular grid pruning method      GridPruning ... 4 (adaptive)
Weight generation scheme         WeightScheme... mBecke (2022)
Basis function cutoff            BFCut       ... 1.0000e-11
Integration weight cutoff        WCut        ... 1.0000e-14
Partially contracted basis set               ... on
Rotationally invariant grid construction     ... off
Angular grids for H and He will be reduced by one unit

Total number of grid points                  ...     4372
Total number of batches                      ...       38
Average number of points per batch           ...      115
Average number of grid points per atom       ...      625
UseSFitting                                  ... on

GRIDX 2
-------
General Integration Accuracy     IntAcc      ... 4.020
Radial Grid Type                 RadialGrid  ... OptM3 with GC (2021)
Angular Grid (max. ang.)         AngularGrid ... 2 (Lebedev-110)
Angular grid pruning method      GridPruning ... 4 (adaptive)
Weight generation scheme         WeightScheme... mBecke (2022)
Basis function cutoff            BFCut       ... 1.0000e-11
Integration weight cutoff        WCut        ... 1.0000e-14
Partially contracted basis set               ... on
Rotationally invariant grid construction     ... off
Angular grids for H and He will be reduced by one unit

Total number of grid points                  ...     9817
Total number of batches                      ...       79
Average number of points per batch           ...      124
Average number of grid points per atom       ...     1402
UseSFitting                                  ... on

GRIDX 3
-------
General Integration Accuracy     IntAcc      ... 4.338
Radial Grid Type                 RadialGrid  ... OptM3 with GC (2021)
Angular Grid (max. ang.)         AngularGrid ... 3 (Lebedev-194)
Angular grid pruning method      GridPruning ... 4 (adaptive)
Weight generation scheme         WeightScheme... mBecke (2022)
Basis function cutoff            BFCut       ... 1.0000e-11
Integration weight cutoff        WCut        ... 1.0000e-14
Partially contracted basis set               ... on
Rotationally invariant grid construction     ... off
Angular grids for H and He will be reduced by one unit

Total number of grid points                  ...    21702
Total number of batches                      ...      172
Average number of points per batch           ...      126
Average number of grid points per atom       ...     3100
UseSFitting                                  ... on
Initializing property integral containers    ... done (  0.1 sec)

SHARK setup successfully completed in   1.5 seconds

Maximum memory used throughout the entire STARTUP-calculation: 10.7 MB


           ************************************************************
           *        Program running with 4 parallel MPI-processes     *
           *              working on a common directory               *
           ************************************************************
-------------------------------------------------------------------------------
                                 ORCA GUESS
                   Start orbitals & Density for SCF / CASSCF
-------------------------------------------------------------------------------

------------
SCF SETTINGS
------------
Hamiltonian:
 Density Functional     Method          .... DFT(GTOs)
 Exchange Functional    Exchange        .... PBE
   PBE kappa parameter   XKappa         ....  0.804000
   PBE mue parameter    XMuePBE         ....  0.219520
 Correlation Functional Correlation     .... PBE
   PBE beta parameter  CBetaPBE         ....  0.066725
 LDA part of GGA corr.  LDAOpt          .... PW91-LDA
 Gradients option       PostSCFGGA      .... off
 Hybrid DFT is turned on
   Fraction HF Exchange ScalHFX         ....  0.250000
   Scaling of DF-GGA-X  ScalDFX         ....  0.750000
   Scaling of DF-GGA-C  ScalDFC         ....  1.000000
   Scaling of DF-LDA-C  ScalLDAC        ....  1.000000
   Perturbative correction              ....  0.000000
   NL short-range parameter             ....  6.900000
 RI-approximation to the Coulomb term is turned on
   Number of AuxJ basis functions       .... 229
   RIJ-COSX (HFX calculated with COS-X)).... on


General Settings:
 Integral files         IntName         .... CS_PdOAc_005_freq_01
 Hartree-Fock type      HFTyp           .... RHF
 Total Charge           Charge          ....   -1
 Multiplicity           Mult            ....    1
 Number of Electrons    NEL             ....   32
 Basis Dimension        Dim             ....   62
 Nuclear Repulsion      ENuc            ....    111.8381534344 Eh

Convergence Acceleration:
 AO-DIIS                CNVDIIS         .... on
   Start iteration      DIISMaxIt       ....     0
   Startup error        DIISStart       ....  0.200000
   # of expansion vecs  DIISMaxEq       ....     5
   Bias factor          DIISBfac        ....   1.050
   Max. coefficient     DIISMaxC        ....  10.000
 MO-DIIS                CNVKDIIS        .... off
 Trust-Rad. Augm. Hess. CNVTRAH         .... auto
   Auto Start mean grad. ratio tolernc. ....  1.125000
   Auto Start start iteration           ....    50
   Auto Start num. interpolation iter.  ....    10
   Max. Number of Micro iterations      ....    24
   Max. Number of Macro iterations      .... Maxiter - #DIIS iter
   Number of Davidson start vectors     ....     2
   Converg. threshold    (grad. norm)   ....   1.000e-05
   Grad. Scal. Fac. for Micro threshold ....   0.100
   Minimum threshold for Micro iter.    ....   1.000e-02
   NR start threshold (gradient norm)   ....   1.000e-04
   Initial trust radius                 ....   0.400
   Minimum AH scaling param. (alpha)    ....   1.000
   Maximum AH scaling param. (alpha)    .... 1000.000
   Quad. conv. algorithm                .... NR
   White noise on init. David. guess    .... on
   Maximum white noise                  ....   0.010
   Pseudo random numbers                .... off
   Inactive MOs                         .... canonical
   Orbital update algorithm             .... Taylor
   Preconditioner                       .... Diag
   Full preconditioner red. dimension   ....   250
 SOSCF                  CNVSOSCF        .... on
   Start iteration      SOSCFMaxIt      ....   150
   Startup grad/error   SOSCFStart      ....  0.001000
   Hessian update       SOSCFHessUp     .... L-BFGS
 Level Shifting         CNVShift        .... on
   Level shift para.    LevelShift      ....    0.2500
   Turn off err/grad.   ShiftErr        ....    0.0000
 Zerner damping         CNVZerner       .... off
 Static damping         CNVDamp         .... on
   Fraction old density DampFac         ....    0.8500
   Max. Damping (<1)    DampMax         ....    0.9800
   Min. Damping (>=0)   DampMin         ....    0.0000
   Turn off err/grad.   DampErr         ....    0.0300

SCF Procedure:
 Maximum # iterations   MaxIter         ....  1500
 SCF integral mode      SCFMode         .... Direct
   Integral package                     .... SHARK and LIBINT hybrid scheme
 Reset frequency        DirectResetFreq ....    20
 Integral Threshold     Thresh          ....  2.500e-11 Eh
 Primitive CutOff       TCut            ....  2.500e-12 Eh

Convergence Tolerance:
 Convergence Check Mode ConvCheckMode   .... Total+1el-Energy
 Convergence forced     ConvForced      .... 0
 Energy Change          TolE            ....  1.000e-08 Eh
 1-El. energy change                    ....  1.000e-05 Eh
 Orbital Gradient       TolG            ....  1.000e-05
 Orbital Rotation angle TolX            ....  1.000e-05
 DIIS Error             TolErr          ....  5.000e-07

------------------------------
INITIAL GUESS: MODEL POTENTIAL
------------------------------
Loading Hartree-Fock densities                     ... done
Calculating cut-offs                               ... done
Initializing the effective Hamiltonian             ... done
Setting up the integral package (SHARK)            ... done
Starting the Coulomb interaction                   ... done (   1.1 sec)
Making the grid                                    ... done (   0.1 sec)
Mapping shells                                     ... done
Starting the XC term evaluation                    ... done (   0.0 sec)
  promolecular density results
     # of electrons  =     30.999141641
     EX              =    -27.339697312
     EC              =     -1.017764752
     EX+EC           =    -28.357462064
Transforming the Hamiltonian                       ... done (   0.0 sec)
Diagonalizing the Hamiltonian                      ... done (   0.0 sec)
Back transforming the eigenvectors                 ... done (   0.0 sec)
Now organizing SCF variables                       ... done
                      ------------------
                      INITIAL GUESS DONE (   1.4 sec)
                      ------------------
             **** ENERGY FILE WAS UPDATED (CS_PdOAc_005_freq_01.en.tmp) ****
Finished Guess after   1.9 sec
Maximum memory used throughout the entire GUESS-calculation: 6.4 MB


           ************************************************************
           *        Program running with 4 parallel MPI-processes     *
           *              working on a common directory               *
           ************************************************************

-------------------------------------------------------------------------------------------
                                      ORCA LEAN-SCF
                              memory conserving SCF solver
-------------------------------------------------------------------------------------------

----------------------------------------D-I-I-S--------------------------------------------
Iteration    Energy (Eh)           Delta-E    RMSDP     MaxDP     DIISErr   Damp  Time(sec)
-------------------------------------------------------------------------------------------
               ***  Starting incremental Fock matrix formation  ***
    1    -227.8480210443237297     0.00e+00  5.33e-03  8.57e-02  2.84e-01  0.850   2.4
    2    -227.9092708538144620    -6.12e-02  5.89e-03  1.19e-01  2.06e-01  0.850   2.1
                               ***Turning on AO-DIIS***
    3    -227.9483690672994385    -3.91e-02  3.32e-03  6.54e-02  1.38e-01  0.850   1.0
    4    -227.9734172931948137    -2.50e-02  2.11e-03  3.72e-02  1.09e-01  0.850   1.0
    5    -227.9915034670884211    -1.81e-02  1.47e-03  2.25e-02  8.97e-02  0.850   2.1
    6    -228.0056346995440890    -1.41e-02  1.10e-03  1.48e-02  7.53e-02  0.850   1.9
    7    -228.0170892919796870    -1.15e-02  8.81e-04  1.07e-02  6.31e-02  0.850   1.0
    8    -228.0264881012680007    -9.40e-03  7.31e-04  8.53e-03  5.26e-02  0.850   1.3
    9    -228.0342195139060095    -7.73e-03  6.15e-04  6.97e-03  4.40e-02  0.850   1.1
   10    -228.0406094633687530    -6.39e-03  5.13e-04  5.58e-03  3.69e-02  0.850   1.7
   11    -228.0459143770621608    -5.30e-03  4.25e-04  4.39e-03  3.09e-02  0.850   2.2
   12    -228.0503357257667858    -4.42e-03  3.52e-04  3.45e-03  2.58e-02  0.850   1.1
   13    -228.0540320619750219    -3.70e-03  1.96e-03  1.83e-02  2.16e-02  0.000   1.1
   14    -228.0739993066957823    -2.00e-02  1.46e-04  2.86e-03  2.14e-03  0.000   1.8
                              *** Initializing SOSCF ***
---------------------------------------S-O-S-C-F--------------------------------------
Iteration    Energy (Eh)           Delta-E    RMSDP     MaxDP     MaxGrad    Time(sec)
--------------------------------------------------------------------------------------
   15    -228.0740105150903219    -1.12e-05  6.53e-05  1.60e-03  4.52e-04     1.1
               *** Restarting incremental Fock matrix formation ***
   16    -228.0739915633852775     1.90e-05  3.99e-05  9.17e-04  3.59e-05     2.3
   17    -228.0739915783436800    -1.50e-08  9.21e-06  1.13e-04  5.93e-05     1.0
   18    -228.0739916137760019    -3.54e-08  6.01e-06  1.32e-04  8.84e-06     0.9
   19    -228.0739916137773662    -1.36e-12  1.07e-06  1.40e-05  5.34e-06     1.0
                 **** Energy Check signals convergence ****

               *****************************************************
               *                     SUCCESS                       *
               *           SCF CONVERGED AFTER  19 CYCLES          *
               *****************************************************

Recomputing exchange energy using gridx3       ... done (    0.328 sec)
Old exchange energy                            :     -7.024732156 Eh
New exchange energy                            :     -7.024750846 Eh
Exchange energy change after final integration :     -0.000018690 Eh
Total energy after final integration           :   -228.074010303 Eh
             **** ENERGY FILE WAS UPDATED (CS_PdOAc_005_freq_01.en.tmp) ****

----------------
TOTAL SCF ENERGY
----------------

Total Energy       :       -228.07401030342751 Eh           -6206.20934 eV

Components:
Nuclear Repulsion  :        111.83815343443949 Eh            3043.27087 eV
Electronic Energy  :       -339.91214504821687 Eh           -9249.47970 eV
One Electron Energy:       -541.39999612196959 Eh          -14732.24287 eV
Two Electron Energy:        201.48785107375272 Eh            5482.76317 eV

Virial components:
Potential Energy   :       -454.52958675656754 Eh          -12368.37885 eV
Kinetic Energy     :        226.45557645314003 Eh            6162.16951 eV
Virial Ratio       :          2.00714680501861

DFT components:
N(Alpha)           :       16.000002873946 electrons
N(Beta)            :       16.000002873946 electrons
N(Total)           :       32.000005747893 electrons
E(X)               :      -21.053437250030 Eh       
E(C)               :       -1.072742836257 Eh       
E(XC)              :      -22.126180086288 Eh       

---------------
SCF CONVERGENCE
---------------

  Last Energy change         ...    1.3642e-12  Tolerance :   1.0000e-08
  Last MAX-Density change    ...    1.4024e-05  Tolerance :   1.0000e-07
  Last RMS-Density change    ...    1.0739e-06  Tolerance :   5.0000e-09
  Last DIIS Error            ...    4.5162e-04  Tolerance :   5.0000e-07
  Last Orbital Gradient      ...    5.3403e-06  Tolerance :   1.0000e-05
  Last Orbital Rotation      ...    4.2240e-06  Tolerance :   1.0000e-05


----------------
ORBITAL ENERGIES
----------------

  NO   OCC          E(Eh)            E(eV) 
   0   2.0000     -18.910717      -514.5868 
   1   2.0000     -18.908225      -514.5190 
   2   2.0000     -10.084404      -274.4106 
   3   2.0000     -10.025582      -272.8099 
   4   2.0000      -0.804416       -21.8893 
   5   2.0000      -0.716192       -19.4886 
   6   2.0000      -0.522609       -14.2209 
   7   2.0000      -0.286552        -7.7975 
   8   2.0000      -0.241116        -6.5611 
   9   2.0000      -0.231324        -6.2946 
  10   2.0000      -0.209658        -5.7051 
  11   2.0000      -0.171922        -4.6782 
  12   2.0000      -0.152730        -4.1560 
  13   2.0000      -0.027075        -0.7368 
  14   2.0000      -0.015662        -0.4262 
  15   2.0000      -0.010403        -0.2831 
  16   0.0000       0.253491         6.8978 
  17   0.0000       0.279486         7.6052 
  18   0.0000       0.313861         8.5406 
  19   0.0000       0.347086         9.4447 
  20   0.0000       0.432337        11.7645 
  21   0.0000       0.500277        13.6132 
  22   0.0000       0.584032        15.8923 
  23   0.0000       0.666865        18.1463 
  24   0.0000       0.743618        20.2349 
  25   0.0000       0.763369        20.7723 
  26   0.0000       0.779066        21.1995 
*Only the first 10 virtual orbitals were printed.

                    ********************************
                    * MULLIKEN POPULATION ANALYSIS *
                    ********************************

-----------------------
MULLIKEN ATOMIC CHARGES
-----------------------
   0 O :   -0.464423
   1 C :    0.116968
   2 O :   -0.453338
   3 C :   -0.388656
   4 H :    0.068104
   5 H :    0.066034
   6 H :    0.055310
Sum of atomic charges:   -1.0000000

--------------------------------
MULLIKEN REDUCED ORBITAL CHARGES
--------------------------------
  0 O s       :     3.750728  s :     3.750728
      pz      :     1.645882  p :     4.698911
      px      :     1.552322
      py      :     1.500706
      dz2     :     0.001892  d :     0.014784
      dxz     :     0.002405
      dyz     :     0.002050
      dx2y2   :     0.003438
      dxy     :     0.004998

  1 C s       :     3.036764  s :     3.036764
      pz      :     0.895237  p :     2.698292
      px      :     0.902156
      py      :     0.900898
      dz2     :     0.016787  d :     0.147976
      dxz     :     0.033454
      dyz     :     0.018720
      dx2y2   :     0.040331
      dxy     :     0.038684

  2 O s       :     3.745877  s :     3.745877
      pz      :     1.612034  p :     4.692643
      px      :     1.379927
      py      :     1.700682
      dz2     :     0.002014  d :     0.014818
      dxz     :     0.004403
      dyz     :     0.000626
      dx2y2   :     0.004617
      dxy     :     0.003159

  3 C s       :     3.154155  s :     3.154155
      pz      :     1.096288  p :     3.205543
      px      :     1.040904
      py      :     1.068352
      dz2     :     0.006788  d :     0.028957
      dxz     :     0.003212
      dyz     :     0.006635
      dx2y2   :     0.002748
      dxy     :     0.009574

  4 H s       :     0.931896  s :     0.931896

  5 H s       :     0.933966  s :     0.933966

  6 H s       :     0.944690  s :     0.944690



                     *******************************
                     * LOEWDIN POPULATION ANALYSIS *
                     *******************************

----------------------
LOEWDIN ATOMIC CHARGES
----------------------
   0 O :   -0.404938
   1 C :   -0.059512
   2 O :   -0.395155
   3 C :   -0.418819
   4 H :    0.097199
   5 H :    0.095399
   6 H :    0.085825

-------------------------------
LOEWDIN REDUCED ORBITAL CHARGES
-------------------------------
  0 O s       :     3.571117  s :     3.571117
      pz      :     1.647335  p :     4.807866
      px      :     1.607573
      py      :     1.552958
      dz2     :     0.003406  d :     0.025955
      dxz     :     0.003726
      dyz     :     0.003518
      dx2y2   :     0.004835
      dxy     :     0.010471

  1 C s       :     2.859381  s :     2.859381
      pz      :     0.910745  p :     2.861146
      px      :     1.010889
      py      :     0.939512
      dz2     :     0.038854  d :     0.338985
      dxz     :     0.072690
      dyz     :     0.042557
      dx2y2   :     0.092654
      dxy     :     0.092229

  2 O s       :     3.569868  s :     3.569868
      pz      :     1.621757  p :     4.799300
      px      :     1.479494
      py      :     1.698049
      dz2     :     0.003187  d :     0.025987
      dxz     :     0.008002
      dyz     :     0.000853
      dx2y2   :     0.009306
      dxy     :     0.004639

  3 C s       :     3.008804  s :     3.008804
      pz      :     1.126239  p :     3.343332
      px      :     1.105377
      py      :     1.111715
      dz2     :     0.014845  d :     0.066683
      dxz     :     0.007254
      dyz     :     0.016863
      dx2y2   :     0.005905
      dxy     :     0.021816

  4 H s       :     0.902801  s :     0.902801

  5 H s       :     0.904601  s :     0.904601

  6 H s       :     0.914175  s :     0.914175



                      *****************************
                      * MAYER POPULATION ANALYSIS *
                      *****************************

  NA   - Mulliken gross atomic population
  ZA   - Total nuclear charge
  QA   - Mulliken gross atomic charge
  VA   - Mayer's total valence
  BVA  - Mayer's bonded valence
  FA   - Mayer's free valence

  ATOM       NA         ZA         QA         VA         BVA        FA
  0 O      8.4644     8.0000    -0.4644     1.9640     1.9640    -0.0000
  1 C      5.8830     6.0000     0.1170     4.5997     4.5997     0.0000
  2 O      8.4533     8.0000    -0.4533     2.0051     2.0051     0.0000
  3 C      6.3887     6.0000    -0.3887     3.7487     3.7487     0.0000
  4 H      0.9319     1.0000     0.0681     0.9621     0.9621     0.0000
  5 H      0.9340     1.0000     0.0660     0.9656     0.9656     0.0000
  6 H      0.9447     1.0000     0.0553     0.9792     0.9792     0.0000

  Mayer bond orders larger than 0.100000
B(  0-O ,  1-C ) :   1.8186 B(  0-O ,  2-O ) :   0.1197 B(  1-C ,  2-O ) :   1.8539 
B(  1-C ,  3-C ) :   0.9292 B(  3-C ,  4-H ) :   0.9577 B(  3-C ,  5-H ) :   0.9574 
B(  3-C ,  6-H ) :   0.9545 

-------
TIMINGS
-------

Total SCF time: 0 days 0 hours 0 min 30 sec 

Total time                  ....      30.494 sec
Sum of individual times     ....      29.684 sec  ( 97.3%)

SCF preparation             ....       0.580 sec  (  1.9%)
Fock matrix formation       ....      19.923 sec  ( 65.3%)
  Startup                   ....       2.549 sec  ( 12.8% of F)
  Split-RI-J                ....       4.426 sec  ( 22.2% of F)
  Chain of spheres X        ....       7.779 sec  ( 39.0% of F)
  XC integration            ....       3.085 sec  ( 15.5% of F)
    XC Preparation          ....       0.000 sec  (  0.0% of XC)
    Basis function eval.    ....       0.476 sec  ( 15.4% of XC)
    Density eval.           ....       0.173 sec  (  5.6% of XC)
    XC-Functional eval.     ....       0.189 sec  (  6.1% of XC)
    XC-Potential eval.      ....       0.170 sec  (  5.5% of XC)
Diagonalization             ....       0.000 sec  (  0.0%)
Density matrix formation    ....       2.010 sec  (  6.6%)
Total Energy calculation    ....       0.905 sec  (  3.0%)
Population analysis         ....       1.057 sec  (  3.5%)
Orbital Transformation      ....       0.156 sec  (  0.5%)
Orbital Orthonormalization  ....       0.000 sec  (  0.0%)
DIIS solution               ....       4.582 sec  ( 15.0%)
SOSCF solution              ....       0.470 sec  (  1.5%)
Finished LeanSCF after  30.7 sec

Maximum memory used throughout the entire LEANSCF-calculation: 7.4 MB


           ************************************************************
           *        Program running with 4 parallel MPI-processes     *
           *              working on a common directory               *
           ************************************************************

------------------------------------------------------------------------------
                         ORCA PROPERTY INTEGRAL CALCULATIONS
------------------------------------------------------------------------------

GBWName                                   ... CS_PdOAc_005_freq_01.gbw
Number of atoms                           ...      7
Number of basis functions                 ...     62
Max core memory                           ...   3500 MB

Dipole integrals                          ... YES
Quadrupole integrals                      ...  NO
Linear momentum integrals                 ...  NO
Angular momentum integrals                ...  NO
Higher moments length integrals           ...  NO
Higher moments velocity integrals         ...  NO
Kinetic energy integrals                  ...  NO
GIAO right hand sides                     ...  NO
GIAO dipole derivative integrals          ...  NO
SOC integrals                             ...  NO
EPR diamagnetic integrals (GIAO)          ...  NO
EPR gauge integrals                       ...  NO
Field gradient integrals                  ...  NO (   0 nuclei)
Spin-dipole/Fermi contact integrals       ...  NO (   0 nuclei)
Contact density integrals                 ...  NO (   0 nuclei)
Nucleus-orbit integrals                   ...  NO (   0 nuclei)
Geometric perturbations                   ... YES (   7 nuclei)

Choice of electric origin   ... Center of mass
Position of electric origin ... (  1.6423, -1.5372,  0.9463) 
Choice of magnetic origin   ... GIAO
Position of magnetic origin ... (  0.0000,  0.0000,  0.0000) 

Calculating integrals                     ... Electric Dipole (Length)     done (  0.0 sec)
Calculating integrals                     ... Geometrical perturbation right hand sides

Info: (SHARK/DRIVER/GeoPert/RHS): Found parallel group flag:
                                  Will try to set up 2 WorkingGroups with 2 workers belonging to each group
                                 group   1: will be working on atoms    4 to    6

Info (SHARK/DRIVER/GeoPert/RHS): Found 2 parallel subgroups - adjusting work intervals:
                                 group   0: will be working on atoms    0 to    3
                                 Outputs of groups > 0 will be redirected to CS_PdOAc_005_freq_01.group*.propint.out


-----------------------
GEOMETRIC PERTURBATIONS (7 nuclei)
-----------------------

MaxCore                            ...   3500 MB
Number of batches                  ...      1

Warning: could not find the gridfile in CPSCF-Calc-FXC
         ... constructing integration grid from scratch...
         ... finished setting up the grid
BATCH   0: Atoms    0 -    3 ( 12 perturbations)
   => H(core) and overlap derivative integrals     ... done (     0.0 sec)
   => Making and storing internal U-coefficients   ... done (     0.1 sec)
   => RI-J derivative integrals                    ... done (     0.5 sec)
   => RI-J response operators                      ... done (     0.1 sec)
   => Chain of spheres derivative integrals        ... done (     1.0 sec)
   => Chain of spheres response operator           ... done (     0.5 sec)
   => XC derivative integrals                      ... done (     2.0 sec)
   => XC response operators                        ... done (     0.5 sec)
   => Completing and storing right hand sides      ... done (     0.0 sec)
   => Total time for right hand sides =   5.5 sec

  geometrical perturbations done (  6.2 sec)

Property integrals calculated in   6.2 sec

Maximum memory used throughout the entire PROPINT-calculation: 12.1 MB


-------------------------------------------------------------------------------
                          DFT DISPERSION CORRECTION                            
                                                                               
                              DFTD3 V3.1  Rev 1                                
                          USING Becke-Johnson damping                          
-------------------------------------------------------------------------------
The PBE0 functional is recognized
Active option DFTDOPT                   ...         4   

molecular C6(AA) [au] = 469.208565 


            DFT-D V3
 parameters
 s6 scaling factor         :     1.0000 
 a1 scaling factor         :     0.4145 
 s8 scaling factor         :     1.2177 
 a2 scaling factor         :     4.8593 
 ad hoc parameters k1-k3   :    16.0000     1.3333    -4.0000 

 Edisp/kcal,au: -1.890380889215  -0.003012513381 
 E6   /kcal   :  -1.214579675 
 E8   /kcal   :  -0.675801215 
 % E8         :  35.749473472 

-------------------------   ----------------
Dispersion correction           -0.003012513
-------------------------   ----------------


-------------------------   --------------------
FINAL SINGLE POINT ENERGY      -228.077022816809
-------------------------   --------------------



           ************************************************************
           *        Program running with 4 parallel MPI-processes     *
           *              working on a common directory               *
           ************************************************************
------------------------------------------------------------------------------
                            ORCA SCF RESPONSE CALCULATION
------------------------------------------------------------------------------

GBWName                                 ... CS_PdOAc_005_freq_01.gbw
Number of atoms                         ...      7
Number of basis functions               ...     62
Max core memory                         ...   3500 MB

Electric field perturbation             ...  NO
Quadrupolar field perturbation          ...  NO
Magnetic field perturbation (no GIAO)   ...  NO
Magnetic field perturbation (with GIAO) ...  NO
Linear momentum (velocity) perturbation ...  NO
Spin-orbit coupling perturbation        ...  NO
Choice of electric origin               ... Center of mass
Position of electric origin             ...     1.642336    -1.537230     0.946322
Choice of magnetic origin               ... GIAO
Position of magnetic origin             ...     0.000000     0.000000     0.000000
Nuclear geometric perturbations         ... YES (  21 perturbations)
Nucleus-orbit perturbations             ...  NO (   0 perturbations)
Spin-dipole/Fermi contact perturbations ...  NO (   0 perturbations)

Total number of real perturbations      ...     21
Total number of imaginary perturbations ...      0
Total number of triplet perturbations   ...      0
Total number of SOC perturbations       ...      0


Info: (ORCA_SCFRESP): Found parallel group flag:
                      Will try to set up 2 WorkingGroups with 2 workers belonging to each group


Using XC Grid                  ... (CS_PdOAc_005_freq_01.group0.grid_cpscf.tmp) 
Recalculating density on grid  ... (CS_PdOAc_005_freq_01.group0.grho_cpscf0.tmp) done
Calculating the xc-kernel      ... (CS_PdOAc_005_freq_01.group0.fxc_cpscf0.tmp) done

                                **********************
                                * REAL PERTURBATIONS *
                                **********************



-------------------
SHARK CP-SCF DRIVER
-------------------

Dimension of the orbital basis          ...     62
Dimension of the CPSCF-problem          ...    736
Number of operators                     ...      1
Max. number of iterations               ...    128
Max. DIIS space dimension               ...     20
Convergence Tolerance                   ... 1.0e-04
Number of perturbations                 ...     21
Perturbation type                       ... REAL

--------------------
DIIS EQUATION SOLVER
--------------------

  ITERATION   0:   ||err||_max =   4.3294e-01 (   1.3 sec   0/ 21 done)
  ITERATION   1:   ||err||_max =   4.9606e-01 (   2.8 sec   0/ 21 done)
  ITERATION   2:   ||err||_max =   1.7318e-02 (   1.9 sec   0/ 21 done)
  ITERATION   3:   ||err||_max =   8.3531e-03 (   2.7 sec   0/ 21 done)
  ITERATION   4:   ||err||_max =   3.5916e-03 (   1.7 sec   0/ 21 done)
  ITERATION   5:   ||err||_max =   1.0805e-03 (   2.8 sec   0/ 21 done)
  ITERATION   6:   ||err||_max =   4.2346e-04 (   1.8 sec   5/ 21 done)
  ITERATION   7:   ||err||_max =   1.1816e-04 (   3.0 sec  17/ 21 done)
  ITERATION   8:   ||err||_max =   4.7684e-05 (   1.2 sec  21/ 21 done)

CP-SCF equations solved in  21.6 sec
Response densities calculated in   0.1 sec

Maximum memory used throughout the entire SCFRESP-calculation: 9.3 MB


           ************************************************************
           *        Program running with 4 parallel MPI-processes     *
           *              working on a common directory               *
           ************************************************************

------------------------------------------------------------------------------
                              ORCA PROPERTY CALCULATIONS
------------------------------------------------------------------------------

GBWName                                 ... CS_PdOAc_005_freq_01.gbw
Number of atoms                         ...      7
Number of basis functions               ...     62
Max core memory                         ...   3500 MB

Electric properties:
Dipole moment                           ... YES
Quadrupole moment                       ...  NO
Static polarizability (Dipole/Dipole)   ...  NO
Static polarizability (Dipole/Quad.)    ...  NO
Static polarizability (Quad./Quad.)     ...  NO
Static polarizability (Velocity)        ...  NO

Atomic electric properties:
Dipole moment                           ...  NO
Quadrupole moment                       ...  NO
Static polarizability                   ...  NO

Choice of electric origin               ... Center of mass
Position of electric origin             ...     1.642336    -1.537230     0.946322

General magnetic properties:
Magnetizability                         ...  NO

EPR properties:
g-Tensor (aka g-matrix)                 ...  NO
Zero-Field splitting spin-orbit         ...  NO
Zero-field splitting spin-spin          ...  NO
Hyperfine couplings                     ...  NO (   0 nuclei)
Quadrupole couplings                    ...  NO (   0 nuclei)
Contact density                         ...  NO (   0 nuclei)

NMR properties:
Chemical shifts                         ...  NO (   0 nuclei)
Spin-rotation constants                 ...  NO (   0 nuclei)
Spin-spin couplings                     ...  NO (   0 nuclei,    0 pairs)

Choice of magnetic origin               ... GIAO
Position of magnetic origin             ...     0.000000     0.000000     0.000000

Properties with geometric perturbations:
SCF Hessian                             ... YES
IR spectrum                             ... YES
VCD spectrum                            ...  NO
X-ray spectroscopy properties:
SCF XES/XAS/RIXS spectra                ...  NO


-------------
DIPOLE MOMENT
-------------

Method             : SCF
Type of density    : Electron Density
Multiplicity       :   1
Irrep              :   0
Energy             :  -228.0740103034275137 Eh
Relativity type    : 
Basis              : AO
                                X                 Y                 Z
Electronic contribution:      1.198388264       2.640143788      -2.845470255
Nuclear contribution   :     -1.505608059      -3.323413584       3.587294834
                        -----------------------------------------
Total Dipole Moment    :     -0.307219795      -0.683269797       0.741824580
                        -----------------------------------------
Magnitude (a.u.)       :      1.054298498
Magnitude (Debye)      :      2.679813815



--------------------
Rotational spectrum 
--------------------
 
Rotational constants in cm-1:             0.383304             0.332506             0.184215 
Rotational constants in MHz :         11491.168183          9968.291451          5522.636795 

Dipole components along the rotational axes: 
x,y,z [a.u.] :    -1.052236     0.065553     0.006920 
x,y,z [Debye]:    -2.674571     0.166623     0.017588 

 

Dipole moment calculation done in   0.1 sec 

-----------
SCF HESSIAN
-----------

Occupied/Occupied contributions to the Hessian:
   => Occupied/Occupied contributions              ... done (  0.4 sec)
Perturbed density contributions to the Hessian:
   => Perturbed density contributions              ... done (  0.0 sec)
Explicit contributions to the Hessian:
   => Nuclear repulsion Hessian                    ... done (  0.0 sec)
   => HCore and overlap Hessian                    ... done (  0.1 sec)
   => RI-J Hessian                                 ... done (  1.1 sec)
   => COSX Hessian                                 ... done ( 11.7 sec)
   => XC-Hessian                                   ... done (  3.1 sec)
   => Van der Waals-Hessian                        ... done (  0.5 sec)
   => Explicit contributions done
Dipole derivatives                                 ... done (  0.1 sec)
Mass weighting the Hessian           ... done
Calculating normal modes             ... done
Scaling frequencies                  ... done

-----------------------
VIBRATIONAL FREQUENCIES
-----------------------

Scaling factor for frequencies =  1.000000000  (already applied!)

     0:       0.00 cm**-1
     1:       0.00 cm**-1
     2:       0.00 cm**-1
     3:       0.00 cm**-1
     4:       0.00 cm**-1
     5:       0.00 cm**-1
     6:      36.56 cm**-1
     7:     423.93 cm**-1
     8:     608.28 cm**-1
     9:     634.07 cm**-1
    10:     887.88 cm**-1
    11:     981.49 cm**-1
    12:    1027.52 cm**-1
    13:    1301.47 cm**-1
    14:    1413.49 cm**-1
    15:    1446.39 cm**-1
    16:    1460.25 cm**-1
    17:    1822.33 cm**-1
    18:    2995.52 cm**-1
    19:    3082.03 cm**-1
    20:    3101.47 cm**-1


------------
NORMAL MODES
------------

These modes are the Cartesian displacements weighted by the diagonal matrix
M(i,i)=1/sqrt(m[i]) where m[i] is the mass of the displaced atom
Thus, these vectors are normalized but *not* orthogonal

                  0          1          2          3          4          5    
      0       0.000000   0.000000   0.000000   0.000000   0.000000   0.000000
      1       0.000000   0.000000   0.000000   0.000000   0.000000   0.000000
      2       0.000000   0.000000   0.000000   0.000000   0.000000   0.000000
      3       0.000000   0.000000   0.000000   0.000000   0.000000   0.000000
      4       0.000000   0.000000   0.000000   0.000000   0.000000   0.000000
      5       0.000000   0.000000   0.000000   0.000000   0.000000   0.000000
      6       0.000000   0.000000   0.000000   0.000000   0.000000   0.000000
      7       0.000000   0.000000   0.000000   0.000000   0.000000   0.000000
      8       0.000000   0.000000   0.000000   0.000000   0.000000   0.000000
      9       0.000000   0.000000   0.000000   0.000000   0.000000   0.000000
     10       0.000000   0.000000   0.000000   0.000000   0.000000   0.000000
     11       0.000000   0.000000   0.000000   0.000000   0.000000   0.000000
     12       0.000000   0.000000   0.000000   0.000000   0.000000   0.000000
     13       0.000000   0.000000   0.000000   0.000000   0.000000   0.000000
     14       0.000000   0.000000   0.000000   0.000000   0.000000   0.000000
     15       0.000000   0.000000   0.000000   0.000000   0.000000   0.000000
     16       0.000000   0.000000   0.000000   0.000000   0.000000   0.000000
     17       0.000000   0.000000   0.000000   0.000000   0.000000   0.000000
     18       0.000000   0.000000   0.000000   0.000000   0.000000   0.000000
     19       0.000000   0.000000   0.000000   0.000000   0.000000   0.000000
     20       0.000000   0.000000   0.000000   0.000000   0.000000   0.000000
                  6          7          8          9         10         11    
      0       0.014360   0.017337   0.013357  -0.198680   0.314267   0.021707
      1       0.023825   0.156995   0.054798  -0.082459  -0.129616  -0.052979
      2       0.032875  -0.141360   0.089993   0.125976  -0.038323   0.035977
      3       0.009481  -0.124713  -0.092220   0.026108  -0.124574   0.018013
      4       0.012138   0.060094  -0.161091   0.072756  -0.295373  -0.016717
      5       0.015287   0.011745  -0.195681   0.029928   0.310621   0.003139
      6      -0.017755  -0.099831   0.035735   0.052985  -0.305118   0.054377
      7      -0.032963  -0.104554   0.029435  -0.222773   0.166212   0.014635
      8      -0.042856   0.133058   0.082601   0.131103   0.003323  -0.038193
      9       0.000902   0.151977   0.002337   0.138405   0.087175  -0.157391
     10       0.004596  -0.084455   0.003752   0.269004   0.179420   0.085818
     11       0.004702   0.000827  -0.066017  -0.280842  -0.193121   0.002987
     12      -0.584488   0.236192   0.202311   0.077816   0.083709   0.099158
     13       0.039387  -0.329158   0.569416   0.155621   0.280531  -0.264828
     14      -0.156036   0.165542  -0.344255  -0.233927  -0.267886   0.263980
     15       0.310294   0.250718  -0.045736   0.145073   0.082706   0.021913
     16      -0.399127  -0.400646  -0.248820   0.376876   0.288228  -0.399474
     17      -0.303441   0.184210   0.479872  -0.457800  -0.303110   0.230175
     18       0.204357   0.497565   0.135253   0.129296   0.134010   0.332091
     19       0.305378   0.187746   0.217261   0.239849   0.232041   0.449512
     20       0.379721  -0.367791   0.243265  -0.398834  -0.273564  -0.531978
                 12         13         14         15         16         17    
      0      -0.015335   0.018550   0.185670   0.027626   0.004874   0.222704
      1      -0.032177  -0.020122  -0.223879  -0.034276  -0.001744  -0.204971
      2      -0.036060   0.008434   0.102051   0.015430   0.004804   0.068552
      3       0.085660   0.005291   0.139800   0.004220  -0.003996  -0.731485
      4       0.153617   0.012351   0.327134   0.045317  -0.004904   0.347817
      5       0.180705  -0.013826  -0.342777  -0.039949  -0.019762   0.050387
      6      -0.018464  -0.025251  -0.287056  -0.020439  -0.004145   0.296407
      7      -0.030276   0.001247  -0.002372   0.000386   0.000907  -0.043033
      8      -0.036936   0.010974   0.137135   0.009686   0.003222  -0.103308
      9      -0.058000   0.044700  -0.058914   0.048934  -0.020784   0.040391
     10      -0.101149   0.096635  -0.017819  -0.034545  -0.039770  -0.017615
     11      -0.119008  -0.104716   0.053884   0.009612  -0.042013  -0.004115
     12       0.295888  -0.151403   0.472480  -0.658929   0.199501   0.124541
     13       0.466307  -0.510756   0.192777  -0.020970  -0.335659   0.096830
     14      -0.352376   0.221241   0.057189  -0.154630   0.200264  -0.021875
     15      -0.188370   0.013720   0.214885  -0.302443  -0.237236   0.046438
     16      -0.249527  -0.273928  -0.243628   0.353265   0.436982   0.012939
     17       0.535307   0.505432  -0.424240   0.416878  -0.088848  -0.179154
     18       0.099343  -0.351628  -0.041979   0.213940   0.321438  -0.175474
     19       0.149284  -0.214364  -0.043782   0.077237   0.444283  -0.108009
     20       0.240508   0.377788   0.013028  -0.299393   0.497293   0.201302
                 18         19         20    
      0       0.000293  -0.000133  -0.001460
      1      -0.000595  -0.000192   0.000603
      2       0.000372  -0.000265   0.000147
      3       0.000543   0.000147   0.005204
      4       0.002251   0.000413  -0.001986
      5      -0.002180   0.000698  -0.000766
      6      -0.000319   0.000027  -0.001679
      7      -0.000216  -0.000092   0.000754
      8       0.000340  -0.000107   0.000174
      9      -0.020233   0.030765   0.083450
     10      -0.026247   0.058400  -0.044536
     11       0.035708   0.064735   0.000585
     12       0.116168   0.152404  -0.049525
     13      -0.313150  -0.356452   0.149453
     14      -0.512056  -0.609594   0.263328
     15       0.498226  -0.584296  -0.359610
     16       0.253863  -0.291888  -0.196689
     17       0.180852  -0.189159  -0.127075
     18      -0.379351   0.065235  -0.597421
     19       0.358088  -0.047955   0.580040
     20      -0.079621   0.024981  -0.139186


-----------
IR SPECTRUM
-----------

 Mode   freq       eps      Int      T**2         TX        TY        TZ
       cm**-1   L/(mol*cm) km/mol    a.u.
----------------------------------------------------------------------------
  6:     36.56   0.000142    0.72  0.001211  (-0.014843 -0.018987 -0.025101)
  7:    423.93   0.000180    0.91  0.000132  ( 0.006940 -0.008409  0.003660)
  8:    608.28   0.000814    4.11  0.000418  (-0.005362 -0.009299 -0.017389)
  9:    634.07   0.000887    4.48  0.000436  ( 0.008282  0.015386 -0.011449)
 10:    887.88   0.015894   80.32  0.005586  (-0.020058 -0.049537  0.052251)
 11:    981.49   0.000957    4.84  0.000304  (-0.016490  0.003339  0.004622)
 12:   1027.52   0.001349    6.82  0.000410  ( 0.006457  0.011951  0.015010)
 13:   1301.47   0.000331    1.67  0.000079  (-0.005741 -0.003427  0.005892)
 14:   1413.49   0.059365  300.01  0.013106  ( 0.034465  0.073925 -0.080335)
 15:   1446.39   0.005280   26.68  0.001139  (-0.006614  0.026420 -0.019938)
 16:   1460.25   0.000380    1.92  0.000081  ( 0.003694  0.007875  0.002333)
 17:   1822.33   0.091936  464.61  0.015744  (-0.112827  0.054441  0.007061)
 18:   2995.52   0.007277   36.78  0.000758  (-0.010286 -0.015944  0.019952)
 19:   3082.03   0.011082   56.00  0.001122  ( 0.011277  0.021844  0.022754)
 20:   3101.47   0.014111   71.31  0.001420  ( 0.032122 -0.019568  0.002252)

* The epsilon (eps) is given for a Dirac delta lineshape.
** The dipole moment derivative (T) already includes vibrational overlap.

The first frequency considered to be a vibration is 6
The total number of vibrations considered is 15


--------------------------
THERMOCHEMISTRY AT 298.15K
--------------------------

Temperature         ...   298.15 K
Pressure            ...     1.00 atm
Total Mass          ...    59.04 AMU
Quasi RRHO          ...     True
Cut-Off Frequency   ...     1.00 cm^-1

Throughout the following assumptions are being made:
  (1) The electronic state is orbitally nondegenerate
  (2) There are no thermally accessible electronically excited states
  (3) Hindered rotations indicated by low frequency modes are not
      treated as such but are treated as vibrations and this may
      cause some error
  (4) All equations used are the standard statistical mechanics
      equations for an ideal gas
  (5) All vibrations are strictly harmonic

freq.      36.56  E(vib)   ...       0.54 
freq.     423.93  E(vib)   ...       0.18 
freq.     608.28  E(vib)   ...       0.10 
freq.     634.07  E(vib)   ...       0.09 
freq.     887.88  E(vib)   ...       0.04 
freq.     981.49  E(vib)   ...       0.02 
freq.    1027.52  E(vib)   ...       0.02 
freq.    1301.47  E(vib)   ...       0.01 
freq.    1413.49  E(vib)   ...       0.00 
freq.    1446.39  E(vib)   ...       0.00 
freq.    1460.25  E(vib)   ...       0.00 
freq.    1822.33  E(vib)   ...       0.00 
freq.    2995.52  E(vib)   ...       0.00 
freq.    3082.03  E(vib)   ...       0.00 
freq.    3101.47  E(vib)   ...       0.00 

------------
INNER ENERGY
------------

The inner energy is: U= E(el) + E(ZPE) + E(vib) + E(rot) + E(trans)
    E(el)   - is the total energy from the electronic structure calculation
              = E(kin-el) + E(nuc-el) + E(el-el) + E(nuc-nuc)
    E(ZPE)  - the the zero temperature vibrational energy from the frequency calculation
    E(vib)  - the the finite temperature correction to E(ZPE) due to population
              of excited vibrational states
    E(rot)  - is the rotational thermal energy
    E(trans)- is the translational thermal energy

Summary of contributions to the inner energy U:
Electronic energy                ...   -228.07702282 Eh
Zero point energy                ...      0.04834881 Eh      30.34 kcal/mol
Thermal vibrational correction   ...      0.00160841 Eh       1.01 kcal/mol
Thermal rotational correction    ...      0.00141627 Eh       0.89 kcal/mol
Thermal translational correction ...      0.00141627 Eh       0.89 kcal/mol
-----------------------------------------------------------------------
Total thermal energy                   -228.02423305 Eh


Summary of corrections to the electronic energy:
(perhaps to be used in another calculation)
Total thermal correction                  0.00444095 Eh       2.79 kcal/mol
Non-thermal (ZPE) correction              0.04834881 Eh      30.34 kcal/mol
-----------------------------------------------------------------------
Total correction                          0.05278977 Eh      33.13 kcal/mol


--------
ENTHALPY
--------

The enthalpy is H = U + kB*T
                kB is Boltzmann's constant
Total thermal energy              ...   -228.02423305 Eh 
Thermal Enthalpy correction       ...      0.00094421 Eh       0.59 kcal/mol
-----------------------------------------------------------------------
Total Enthalpy                    ...   -228.02328884 Eh


Note: Only C1 symmetry has been detected, increase convergence thresholds 
      if your molecule has a higher symmetry. Symmetry factor of 1.0 is   
      used for the rotational entropy correction. 
 

Note: Rotational entropy computed according to Herzberg 
Infrared and Raman Spectra, Chapter V,1, Van Nostrand Reinhold, 1945 
Point Group:  C1, Symmetry Number:   1  
Rotational constants in cm-1:     0.383304     0.332506     0.184215 

Vibrational entropy computed according to the QRRHO of S. Grimme
Chem.Eur.J. 2012 18 9955 using a reference frequency of 100.0 cm-1


-------
ENTROPY
-------

The entropy contributions are T*S = T*(S(el)+S(vib)+S(rot)+S(trans))
     S(el)   - electronic entropy
     S(vib)  - vibrational entropy
     S(rot)  - rotational entropy
     S(trans)- translational entropy
The entropies will be listed as multiplied by the temperature to get
units of energy

Electronic entropy                ...      0.00000000 Eh      0.00 kcal/mol
Vibrational entropy               ...      0.00284804 Eh      1.79 kcal/mol
Rotational entropy                ...      0.01128194 Eh      7.08 kcal/mol
Translational entropy             ...      0.01812503 Eh     11.37 kcal/mol
-----------------------------------------------------------------------
Final entropy term                ...      0.03225501 Eh     20.24 kcal/mol

In case the symmetry of your molecule has not been determined correctly
or in case you have a reason to use a different symmetry number we print 
out the resulting rotational entropy values for sn=1,12:

 non-linear molecules -----------------------------------
|  sn= 1 | S(rot)=       0.01128194 Eh      7.08 kcal/mol|
|  sn= 2 | S(rot)=       0.01062748 Eh      6.67 kcal/mol|
|  sn= 3 | S(rot)=       0.01024465 Eh      6.43 kcal/mol|
|  sn= 4 | S(rot)=       0.00997303 Eh      6.26 kcal/mol|
|  sn= 5 | S(rot)=       0.00976234 Eh      6.13 kcal/mol|
|  sn= 6 | S(rot)=       0.00959019 Eh      6.02 kcal/mol|
|  sn= 7 | S(rot)=       0.00944465 Eh      5.93 kcal/mol|
|  sn= 8 | S(rot)=       0.00931857 Eh      5.85 kcal/mol|
|  sn= 9 | S(rot)=       0.00920736 Eh      5.78 kcal/mol|
|  sn=10 | S(rot)=       0.00910788 Eh      5.72 kcal/mol|
|  sn=11 | S(rot)=       0.00901789 Eh      5.66 kcal/mol|
|  sn=12 | S(rot)=       0.00893574 Eh      5.61 kcal/mol|
 linear molecules ---------------------------------------
|  Dinfh | S(rot)=       0.00692303 Eh      4.34 kcal/mol|
|  Cinfv | S(rot)=       0.00757749 Eh      4.75 kcal/mol|
 --------------------------------------------------------


-------------------
GIBBS FREE ENERGY
-------------------

The Gibbs free energy is G = H - T*S

Total enthalpy                    ...   -228.02328884 Eh 
Total entropy correction          ...     -0.03225501 Eh    -20.24 kcal/mol
-----------------------------------------------------------------------
Final Gibbs free energy         ...   -228.05554385 Eh

For completeness - the Gibbs free energy minus the electronic energy
G-E(el)                           ...      0.02147897 Eh     13.48 kcal/mol


Maximum memory used throughout the entire PROP-calculation: 26.0 MB

--------------------------------
SUGGESTED CITATIONS FOR THIS RUN
--------------------------------

Below you find a list of papers that are relevant to this ORCA run
We neither can nor want to force you to cite these papers, but we appreciate if you do
You receive ORCA, which is the product of decades of hard work by many enthusiastic individuals, for free
The only thing we kindly ask in return is that you cite our papers,
We deeply appreciate it, if you show your appreciation for ORCA by not just citing the generic ORCA reference.

Please note that relegating all ORCA citations to the supporting information does *not* help us.
SI sections are not indexed - citations you put there will not count into any citation statistics
But we need these citations in order to attract the funding resources that allow us to do what we are doing

Therefore, if you are a happy ORCA user, please consider citing a few of the papers listed below in the main body of your paper

In addition to the list printed below, the program has created the file CS_PdOAc_005_freq_01.bibtex that contains the list in bibtex format
You can import this file easily into all common literature databanks and citation aid programs


List of essential papers. We consider these as the minimum necessary citations

  1. Neese,F.
     Software update: the ORCA program system, version 5.0
     WIRES Comput. Molec. Sci., 2022 12(1)e1606
     doi.org/10.1002/wcms.1606

List of papers to cite with high priority. The work reported in these papers was absolutely
necessary for this run to complete.
Our perspective: the developers of density functionals and basis sets usually get cited in chemistry papers
Good! But without the algorithms to do something with them, the functionals or basis sets would not do anything.
Hence, in our opinion, the algorithm design and method developments papers are equally worthy of getting cited

  1. Neese,F.
     An improvement of the resolution of the identity approximation for the formation of the Coulomb matrix
     J. Comp. Chem., 2003 24(14)1740-1747
     doi.org/10.1002/jcc.10318
  2. Neese,F.; Wennmohs,F.; Hansen,A.; Becker,U.
     Efficient, approximate and parallel Hartree-Fock and hybrid DFT calculations. A 'chain-of-spheres' algorithm for the Hartree-Fock exchange
     Chem. Phys., 2009 356(1-3)98-109
     doi.org/10.1016/j.chemphys.2008.10.036
  3. Bykov,D.; Petrenko,T.; Izsak,R.; Kossmann,S.; Becker,U.; Valeev,E.; Neese,F.
     Efficient implementation of the analytic second derivatives of Hartree-Fock and hybrid DFT energies: a detailed analysis of different approximations
     Molec. Phys., 2015 113 1961-1977
     doi.org/10.1080/00268976.2015.1025114
  4. Helmich-Paris,B.; de Souza,B.; Neese,F.; Izsák,R.
     An improved chain of spheres for exchange algorithm
     J. Chem. Phys., 2021 155 104109
     doi.org/doi: 10.1063/5.0058766.
  5. Neese,F.
     The SHARK Integral Generation and Digestion System
     J. Comp. Chem., 2022  1-16
     doi.org/10.1002/jcc.26942
  6. Grimme,S.; Antony,J.; Ehrlich,S.; Krieg,H.
     A consistent and accurate ab initio parametrization of density functional dispersion correction (DFT-D) for the 94 elements H-Pu
     J. Chem. Phys., 2010 132 154104-XXXX
     doi.org/10.1063/1.3382344
  7. Grimme,S.; Ehrlich,S.; Goerigk,L.
     Effect of the damping function in dispersion corrected density functional theory
     J. Comput. Chem., 2011 32(7)1456-1465
     doi.org/10.1002/jcc.21759

List of suggested additional citations. These are papers that are important in the 'surrounding' of 
of this run, or papers that preceded the highly important papers. If you like your results we are grateful for a citation.

  1. Izsak,R.; Neese,F.
     An overlap fitted chain of spheres exchange method
     J. Chem. Phys., 2011 135 144105
     doi.org/10.1063/1.3646921
  2. Izsak,R.; Hansen,A.; Neese,F.
     The resolution of identity and chain of spheres approximations for the LPNO-CCSD singles Fock term
     Molec. Phys., 2012 110 2413-2417
     doi.org/10.1080/00268976.2012.687466
  3. Neese,F.
     The ORCA program system
     WIRES Comput. Molec. Sci., 2012 2(1)73-78
     doi.org/10.1002/wcms.81
  4. Izsak,R.; Neese,F.; Klopper,W.
     Robust fitting techniques in the chain of spheres approximation to the Fock exchange: The role of the complementary space
     J. Chem. Phys., 2013 139 
     doi.org/10.1063/1.4819264
  5. Neese,F.
     Software update: the ORCA program system, version 4.0
     WIRES Comput. Molec. Sci., 2018 8(1)1-6
     doi.org/10.1002/wcms.1327
  6. Neese,F.; Wennmohs,F.; Becker,U.; Riplinger,C.
     The ORCA quantum chemistry program package
     J. Chem. Phys., 2020 152 Art. No. L224108
     doi.org/10.1063/5.0004608

List of optional additional citations

  1. Neese,F.
     Approximate second-order SCF convergence for spin unrestricted wavefunctions
     Chem. Phys. Lett., 2000 325(1-3)93-98
     doi.org/10.1016/s0009-2614(00)00662-x

Timings for individual modules:

Sum of individual times          ...       92.600 sec (=   1.543 min)
Startup calculation              ...        3.048 sec (=   0.051 min)   3.3 %
SCF iterations                   ...       36.074 sec (=   0.601 min)  39.0 %
Property integrals               ...       10.290 sec (=   0.172 min)  11.1 %
SCF Response                     ...       24.226 sec (=   0.404 min)  26.2 %
Property calculations            ...       18.962 sec (=   0.316 min)  20.5 %
                             ****ORCA TERMINATED NORMALLY****
TOTAL RUN TIME: 0 days 0 hours 1 minutes 35 seconds 275 msec
