
                                 *****************
                                 * O   R   C   A *
                                 *****************

                                            #,                                       
                                            ###                                      
                                            ####                                     
                                            #####                                    
                                            ######                                   
                                           ########,                                 
                                     ,,################,,,,,                         
                               ,,#################################,,                 
                          ,,##########################################,,             
                       ,#########################################, ''#####,          
                    ,#############################################,,   '####,        
                  ,##################################################,,,,####,       
                ,###########''''           ''''###############################       
              ,#####''   ,,,,##########,,,,          '''####'''          '####       
            ,##' ,,,,###########################,,,                        '##       
           ' ,,###''''                  '''############,,,                           
         ,,##''                                '''############,,,,        ,,,,,,###''
      ,#''                                            '''#######################'''  
     '                                                          ''''####''''         
             ,#######,   #######,   ,#######,      ##                                
            ,#'     '#,  ##    ##  ,#'     '#,    #''#        ,####,   ,####,        
            ##       ##  ##   ,#'  ##            #'  '#       #'       #'  '#        
            ##       ##  #######   ##           ,######,      #####,   #    #        
            '#,     ,#'  ##    ##  '#,     ,#' ,#      #,     #,   #   #,  ,#        
             '#######'   ##     ##  '#######'  #'      '#     '####' # '####'        



                #########################################################
                #                        -***-                          #
                #          Department of theory and spectroscopy        #
                #                                                       #
                #                      Frank Neese                      #
                #                                                       #
                #     Directorship, Architecture, Infrastructure        #
                #                    SHARK, DRIVERS                     #
                #        Core code/Algorithms in most modules           #
                #                                                       #
                #        Max Planck Institute fuer Kohlenforschung      #
                #                Kaiser Wilhelm Platz 1                 #
                #                 D-45470 Muelheim/Ruhr                 #
                #                      Germany                          #
                #                                                       #
                #                  All rights reserved                  #
                #                        -***-                          #
                #########################################################


                         Program Version 6.0.0  -   RELEASE  -


 With contributions from (in alphabetic order):
   Daniel Aravena         : Magnetic Suceptibility
   Michael Atanasov       : Ab Initio Ligand Field Theory (pilot matlab implementation)
   Alexander A. Auer      : GIAO ZORA, VPT2 properties, NMR spectrum
   Ute Becker             : All parallelization in ORCA, NUMFREQ, NUMCALC
   Giovanni Bistoni       : ED, misc. LED, open-shell LED, HFLD
   Martin Brehm           : Molecular dynamics
   Dmytro Bykov           : pre 5.0 version of the SCF Hessian
   Marcos Casanova-Páez   : Triplet and SCS-CIS(D). UHF-(DLPNO)-IP/EA/STEOM-CCSD. UHF-CVS-IP/STEOM-CCSD
   Vijay G. Chilkuri      : MRCI spin determinant printing, contributions to CSF-ICE
   Pauline Colinet        : FMM embedding
   Dipayan Datta          : RHF DLPNO-CCSD density
   Achintya Kumar Dutta   : EOM-CC, STEOM-CC
   Nicolas Foglia         : Exact transition moments, OPA infrastructure, MCD improvements
   Dmitry Ganyushin       : Spin-Orbit,Spin-Spin,Magnetic field MRCI
   Miquel Garcia          : C-PCM and meta-GGA Hessian, CCSD/C-PCM, Gaussian charge scheme
   Tiago L. C. Gouveia    : GS-ROHF, GS-ROCIS
   Yang Guo               : DLPNO-NEVPT2, F12-NEVPT2, CIM, IAO-localization
   Andreas Hansen         : Spin unrestricted coupled pair/coupled cluster methods
   Ingolf Harden          : AUTO-CI MPn and infrastructure 
   Benjamin Helmich-Paris : MC-RPA, TRAH-(SCF,CASSCF), AVAS, COSX integrals, SCF dyn. polar.
   Lee Huntington         : MR-EOM, pCC
   Robert Izsak           : Overlap fitted RIJCOSX, COSX-SCS-MP3, EOM
   Riya Kayal             : Wick's Theorem for AUTO-CI, AUTO-CI UHF-CCSDT
   Emily Kempfer          : AUTO-CI, RHF CISDT and CCSDT
   Christian Kollmar      : KDIIS, OOCD, Brueckner-CCSD(T), CCSD density, CASPT2, CASPT2-K, improved NEVPT2
   Axel Koslowski         : Symmetry handling
   Simone Kossmann        : Meta GGA functionals, TD-DFT gradient, OOMP2, (MP2 Hessian; deprecated post 5.0)
   Lucas Lang             : DCDCAS
   Marvin Lechner         : AUTO-CI (C++ implementation), FIC-MRCC
   Spencer Leger          : CASSCF response
   Dagmar Lenk            : GEPOL surface, SMD, ORCA-2-JSON
   Dimitrios Liakos       : Extrapolation schemes; Compound Job, initial MDCI parallelization
   Dimitrios Manganas     : Further ROCIS development; embedding schemes. LFT, Crystal Embedding
   Dimitrios Pantazis     : SARC Basis sets
   Anastasios Papadopoulos: AUTO-CI, single reference methods and gradients
   Taras Petrenko         : pre 6.0 DFT Hessian and TD-DFT gradient, (ASA, deprecated), ECA, 1-Electron XAS/XES, NRVS
   Peter Pinski           : DLPNO-MP2, DLPNO-MP2 Gradient
   Christoph Reimann      : Effective Core Potentials
   Marius Retegan         : Local ZFS, SOC
   Christoph Riplinger    : Optimizer, TS searches, QM/MM, DLPNO-CCSD(T), (RO)-DLPNO pert. Triples
   Michael Roemelt        : Original ROCIS implementation
   Masaaki Saitow         : Open-shell DLPNO-CCSD energy and density
   Barbara Sandhoefer     : DKH picture change effects
   Kantharuban Sivalingam : CASSCF convergence/infrastructure, NEVPT2 and variants, FIC-MRCI
   Bernardo de Souza      : ESD, SOC TD-DFT
   Georgi Stoychev        : AutoAux, RI-MP2 NMR, DLPNO-MP2 response, X2C
   Van Anh Tran           : RI-MP2 g-tensors
   Willem Van den Heuvel  : Paramagnetic NMR
   Zikuan Wang            : NOTCH, Electric field optimization 
   Frank Wennmohs         : Technical directorship and infrastructure
   Hang Xu                : AUTO-CI-Response properties 


 We gratefully acknowledge several colleagues who have allowed us to
 interface, adapt or use parts of their codes:
   Stefan Grimme, W. Hujo, H. Kruse, P. Pracht,  : VdW corrections, initial TS optimization,
                  C. Bannwarth, S. Ehlert,         DFT functionals, gCP, sTDA/sTD-DF
                  L. Wittmann, M. Mueller
   Ed Valeev, F. Pavosevic, A. Kumar             : LibInt (2-el integral package), F12 methods
   Garnet Chan, S. Sharma, J. Yang, R. Olivares  : DMRG
   Ulf Ekstrom                                   : XCFun DFT Library
   Mihaly Kallay                                 : mrcc  (arbitrary order and MRCC methods)
   Frank Weinhold                                : gennbo (NPA and NBO analysis)
   Simon Mueller                                 : openCOSMO-RS
   Christopher J. Cramer and Donald G. Truhlar   : smd solvation model
   Lars Goerigk                                  : TD-DFT with DH, B97 family of functionals
   V. Asgeirsson, H. Jonsson                     : NEB implementation
   FAccTs GmbH                                   : IRC, NEB, NEB-TS, DLPNO-Multilevel, CI-OPT
                                                   MM, QMMM, 2- and 3-layer-ONIOM, Crystal-QMMM,
                                                   LR-CPCM, SF, NACMEs, symmetry and pop. for TD-DFT,
                                                   nearIR, NL-DFT gradient (VV10), updates on ESD,
                                                   ML-optimized integration grids, MBIS, APM,
                                                   GOAT, DOCKER, SOLVATOR, interface openCOSMO-RS
   S Lehtola, MJT Oliveira, MAL Marques          : LibXC Library
   Liviu Ungur et al                             : ANISO software


 Your calculation uses the libint2 library for the computation of 2-el integrals
 For citations please refer to: http://libint.valeyev.net

 Your ORCA version has been built with support for libXC version: 6.2.2
 For citations please refer to: https://libxc.gitlab.io

 This ORCA versions uses:
   CBLAS   interface :  Fast vector & matrix operations
   LAPACKE interface :  Fast linear algebra routines
   SCALAPACK package :  Parallel linear algebra routines
   Shared memory     :  Shared parallel matrices
   BLAS/LAPACK       :  OpenBLAS 0.3.27  USE64BITINT DYNAMIC_ARCH NO_AFFINITY Sandybridge SINGLE_THREADED
        Core in use  :  Sandybridge
   Copyright (c) 2011-2014, The OpenBLAS Project


NOTE: MaxCore=3500 MB was set to SCF,MP2,MDCI,CIPSI,MRCI and CIS
      => If you want to overwrite this, your respective input block should be placed after the MaxCore statement
Your calculation utilizes the atom-pairwise dispersion correction
with the Becke-Johnson damping scheme (D3BJ)


Warning: RI is on but no J-basis has been assigned. Assigning Def2/J (nothing to worry about!)
================================================================================

cite the ECPs for Pd [Def2-ECP] as follows:
Ce-Yb(ecp-28): M. Dolg, H. Stoll, H.Preuss, J. Chem. Phys., 1989, 90, 1730-1734.
Y-Cd(ecp-28), Hf-Hg(ecp-46): D. Andrae,U. Haeussermann, M. Dolg, H. Stoll, H. Preuss, Theor. Chim. Acta, 1990, 77, 123-141.
In-Sb(ecp-28), Tl-Bi(ecp-46): B. Metz, H. Stoll, M. Dolg, J. Chem. Phys., 2000, 113, 2563-2569.
Te-Xe(ecp-28), Po-Rn(ecp-46): K. A. Peterson, D. Figgen, E. Goll, H. Stoll, M. Dolg, J. Chem. Phys., 2003, 119, 11113-11123.
Rb(ecp-28), Cs(ecp-46): T. Leininger, A. Nicklass, W. Kuechle, H. Stoll, M. Dolg, A. Bergner, Chem. Phys. Lett., 1996, 255, 274-280.
Sr(ecp-28), Ba(ecp-46): M. Kaupp, P. V. Schleyer, H. Stoll and H. Preuss, J. Chem. Phys., 1991, 94, 1360-1366.
La(ecp-46): M. Dolg, H. Stoll, A. Savin, H. Preuss, Theor. Chim. Acta, 1989, 75, 173-194.
Lu(ecp-28): X. Cao, M. Dolg, J. Chem. Phys., 2001, 115, 7348-7355.

ECP parameters for Pd [Def2-ECP] have been obtained from:
TURBOMOLE (7.0.2)

----- Orbital basis set information -----
Your calculation utilizes the basis: def2-SV(P)
   F. Weigend and R. Ahlrichs, Phys. Chem. Chem. Phys. 7, 3297 (2005).

----- AuxJ basis set information -----
Your calculation utilizes the auxiliary basis: def2/J
   F. Weigend, Phys. Chem. Chem. Phys. 8, 1057 (2006).

================================================================================
                                        WARNINGS
                       Please study these warnings very carefully!
================================================================================


================================================================================
                                       INPUT FILE
================================================================================
NAME = CS_PdOAc_002_freq_01.inp
|  1> !PBE0 def2-SV(p) freq d3 TightSCF SlowConv RIJCOSX defgrid2
|  2> 
|  3> %pal
|  4> nprocs 16
|  5> nprocs_group 2
|  6> end
|  7> 
|  8> %scf
|  9> MaxIter 1500
| 10> end
| 11> 
| 12> %maxcore 3500
| 13> 
| 14>  
| 15> 
| 16> * xyz 0 1
| 17>   Pd         -0.96155713297856      1.46825119028625     -0.13527296373080
| 18>   O          -0.74187794558493      1.18287061435267     -2.12305578859050
| 19>   O           1.45546578834347      0.69101813442753     -2.20351959336500
| 20>   C           0.32624937011772      0.89115554296676     -2.72156618361241
| 21>   C           0.23372492740678      0.73087975790385     -4.21510820689113
| 22>   H          -0.53878430173106      1.39938046890886     -4.62254668779545
| 23>   H           1.20976413262595      0.92400951017976     -4.68302116244606
| 24>   H          -0.06043777423073     -0.31040774281063     -4.43506637654638
| 25>   O          -1.04289807496586      3.51854309351393      0.04622241118279
| 26>   C          -1.22564132209613      3.39522180705469      1.29566373876984
| 27>   O          -1.28346245725946      2.21507530405670      1.75725333355886
| 28>   C          -1.32661357978533      4.58565843010107      2.18598649394381
| 29>   H          -1.82275121140900      5.41352372082763      1.65685931033598
| 30>   H          -0.30715170003296      4.91416286869020      2.45516990838206
| 31>   H          -1.86789694665148      4.32754366295921      3.10826985324034
| 32>   O           2.88275106171368      2.60996093426844     -0.06561645756303
| 33>   Pd          1.90586178931800      0.80204731962409     -0.23833293090210
| 34>   O           2.63734450670721      1.28153522323390      1.62546472316981
| 35>   C           3.06930521704641      2.38367256125759      1.16829667472386
| 36>   H           4.35993183781436      4.06235231225963      1.45847733953824
| 37>   H           2.95066748051037      3.97820123798582      2.56112518371947
| 38>   C           3.73042074007027      3.38378175287754      2.05293935602851
| 39>   H           4.32434754864880      2.87170678305794      2.82542533455215
| 40>   O           1.13237209121254     -1.04293754665840      0.02944012181449
| 41>   C          -0.08625837794638     -1.32847649317569      0.16225550773202
| 42>   O          -1.06005617226553     -0.53236468415262      0.12562364650755
| 43>   C          -0.41560269543157     -2.78465938740288      0.35152232534782
| 44>   H          -0.53496223405774     -3.24607369007396     -0.64440725084470
| 45>   H           0.40643468166696     -3.29693994446352      0.87239776872500
| 46>   H          -1.36122075577586     -2.89508396005644      0.90158258001495
| 47> *
| 48> 
| 49>                          ****END OF INPUT****
================================================================================

                       ****************************
                       * Single Point Calculation *
                       ****************************

---------------------------------
CARTESIAN COORDINATES (ANGSTROEM)
---------------------------------
  Pd    -0.961557    1.468251   -0.135273
  O     -0.741878    1.182871   -2.123056
  O      1.455466    0.691018   -2.203520
  C      0.326249    0.891156   -2.721566
  C      0.233725    0.730880   -4.215108
  H     -0.538784    1.399380   -4.622547
  H      1.209764    0.924010   -4.683021
  H     -0.060438   -0.310408   -4.435066
  O     -1.042898    3.518543    0.046222
  C     -1.225641    3.395222    1.295664
  O     -1.283462    2.215075    1.757253
  C     -1.326614    4.585658    2.185986
  H     -1.822751    5.413524    1.656859
  H     -0.307152    4.914163    2.455170
  H     -1.867897    4.327544    3.108270
  O      2.882751    2.609961   -0.065616
  Pd     1.905862    0.802047   -0.238333
  O      2.637345    1.281535    1.625465
  C      3.069305    2.383673    1.168297
  H      4.359932    4.062352    1.458477
  H      2.950667    3.978201    2.561125
  C      3.730421    3.383782    2.052939
  H      4.324348    2.871707    2.825425
  O      1.132372   -1.042938    0.029440
  C     -0.086258   -1.328476    0.162256
  O     -1.060056   -0.532365    0.125624
  C     -0.415603   -2.784659    0.351522
  H     -0.534962   -3.246074   -0.644407
  H      0.406435   -3.296940    0.872398
  H     -1.361221   -2.895084    0.901583

----------------------------
CARTESIAN COORDINATES (A.U.)
----------------------------
  NO LB      ZA    FRAG     MASS         X           Y           Z
   0 Pd   18.0000*   0   106.400   -1.817080    2.774593   -0.255629
   1 O     8.0000    0    15.999   -1.401946    2.235302   -4.011994
   2 O     8.0000    0    15.999    2.750432    1.305835   -4.164049
   3 C     6.0000    0    12.011    0.616522    1.684040   -5.143015
   4 C     6.0000    0    12.011    0.441676    1.381163   -7.965400
   5 H     1.0000    0     1.008   -1.018155    2.644446   -8.735347
   6 H     1.0000    0     1.008    2.286123    1.746125   -8.849627
   7 H     1.0000    0     1.008   -0.114211   -0.586586   -8.381061
   8 O     8.0000    0    15.999   -1.970792    6.649083    0.087348
   9 C     6.0000    0    12.011   -2.316126    6.416039    2.448450
  10 O     8.0000    0    15.999   -2.425393    4.185886    3.320728
  11 C     6.0000    0    12.011   -2.506936    8.665639    4.130916
  12 H     1.0000    0     1.008   -3.444501   10.230077    3.131010
  13 H     1.0000    0     1.008   -0.580433    9.286422    4.639599
  14 H     1.0000    0     1.008   -3.529814    8.177872    5.873779
  15 O     8.0000    0    15.999    5.447610    4.932111   -0.123997
  16 Pd   18.0000*   0   106.400    3.601557    1.515650   -0.450384
  17 O     8.0000    0    15.999    4.983859    2.421751    3.071683
  18 C     6.0000    0    12.011    5.800146    4.504488    2.207761
  19 H     1.0000    0     1.008    8.239077    7.676733    2.756123
  20 H     1.0000    0     1.008    5.575953    7.517711    4.839825
  21 C     6.0000    0    12.011    7.049474    6.394421    3.879493
  22 H     1.0000    0     1.008    8.171833    5.426739    5.339280
  23 O     8.0000    0    15.999    2.139873   -1.970866    0.055634
  24 C     6.0000    0    12.011   -0.163005   -2.510457    0.306618
  25 O     8.0000    0    15.999   -2.003216   -1.006023    0.237394
  26 C     6.0000    0    12.011   -0.785375   -5.262244    0.664281
  27 H     1.0000    0     1.008   -1.010932   -6.134190   -1.217753
  28 H     1.0000    0     1.008    0.768050   -6.230314    1.648593
  29 H     1.0000    0     1.008   -2.572334   -5.470916    1.703744
* core charge reduced due to ECP

--------------------------------
INTERNAL COORDINATES (ANGSTROEM)
--------------------------------
 Pd     0   0   0     0.000000000000     0.00000000     0.00000000
 O      1   0   0     2.020143949648     0.00000000     0.00000000
 O      2   1   0     2.253156179878    99.90575967     0.00000000
 C      3   2   1     1.258394600733    26.47417421   181.39900009
 C      4   3   2     1.504964077670   116.53721311   181.66221405
 H      5   4   3     1.099849910415   110.24826859   210.28312924
 H      5   4   3     1.099497232973   110.42965520   333.36535048
 H      5   4   3     1.104170707172   108.33102477    92.06299309
 O      1   2   3     2.059915971199   103.39118262   103.21589233
 C      9   1   2     1.268742237473    89.75419203   177.58319434
 O     10   9   1     1.268524341992   117.08659981   358.97820937
 C     10   9   1     1.489969583144   121.36953276   177.18831355
 H     12  10   9     1.100676639861   110.13460682    34.48362872
 H     12  10   9     1.104390058380   108.70791665   276.30431358
 H     12  10   9     1.100098864238   110.29434111   157.28951040
 O      3   2   1     3.207820839560   106.23224488   321.47965385
 Pd     3   2   1     2.019193565754    99.83272386     0.68716380
 O     17   3   2     2.058814540184   166.68554388   244.65286762
 C     16   3   2     1.268286441882   127.38136666    88.34338742
 H     19  16   3     2.137261705756    94.63333081   170.00026517
 H     20  19  16     1.791351361500    64.63454679   125.74427216
 C     20  19  16     1.100057869065    40.82665050   160.10770694
 H     22  20  19     1.100774461768   110.94201592   122.29003547
 O     17   3   2     2.018404785381    89.62042276    79.60417312
 C     24  17   3     1.258663035557   126.32723548   278.69668038
 O     25  24  17     1.258339401729   127.06088536     1.68512487
 C     25  24  17     1.504911369201   116.40223126   180.05471664
 H     27  25  24     1.104094913903   108.33627674   272.39969278
 H     27  25  24     1.099767269018   110.28629346    30.72398246
 H     27  25  24     1.099524163472   110.38385774   153.80275068

---------------------------
INTERNAL COORDINATES (A.U.)
---------------------------
 Pd     0   0   0     0.000000000000     0.00000000     0.00000000
 O      1   0   0     3.817518815934     0.00000000     0.00000000
 O      2   1   0     4.257848116921    99.90575967     0.00000000
 C      3   2   1     2.378021163791    26.47417421   181.39900009
 C      4   3   2     2.843969948185   116.53721311   181.66221405
 H      5   4   3     2.078415119101   110.24826859   210.28312924
 H      5   4   3     2.077748655323   110.42965520   333.36535048
 H      5   4   3     2.086580241653   108.33102477    92.06299309
 O      1   2   3     3.892677044456   103.39118262   103.21589233
 C      9   1   2     2.397575363363    89.75419203   177.58319434
 O     10   9   1     2.397163600578   117.08659981   358.97820937
 C     10   9   1     2.815634460014   121.36953276   177.18831355
 H     12  10   9     2.079977411342   110.13460682    34.48362872
 H     12  10   9     2.086994755364   108.70791665   276.30431358
 H     12  10   9     2.078885573648   110.29434111   157.28951040
 O      3   2   1     6.061902873453   106.23224488   321.47965385
 Pd     3   2   1     3.815722850650    99.83272386     0.68716380
 O     17   3   2     3.890595641482   166.68554388   244.65286762
 C     16   3   2     2.396714034523   127.38136666    88.34338742
 H     19  16   3     4.038839300396    94.63333081   170.00026517
 H     20  19  16     3.385163482861    64.63454679   125.74427216
 C     20  19  16     2.078808103999    40.82665050   160.10770694
 H     22  20  19     2.080162267955   110.94201592   122.29003547
 O     17   3   2     3.814232271766    89.62042276    79.60417312
 C     24  17   3     2.378528432092   126.32723548   278.69668038
 O     25  24  17     2.377916852790   127.06088536     1.68512487
 C     25  24  17     2.843870343614   116.40223126   180.05471664
 H     27  25  24     2.086437013131   108.33627674   272.39969278
 H     27  25  24     2.078258949494   110.28629346    30.72398246
 H     27  25  24     2.077799546592   110.38385774   153.80275068

---------------------
BASIS SET INFORMATION
---------------------
There are 4 groups of distinct atoms

 Group   1 Type Pd  : 7s6p5d contracted to 5s3p2d pattern {31111/411/41}
 Group   2 Type O   : 7s4p1d contracted to 3s2p1d pattern {511/31/1}
 Group   3 Type C   : 7s4p1d contracted to 3s2p1d pattern {511/31/1}
 Group   4 Type H   : 4s contracted to 2s pattern {31}

Atom   0Pd   basis set group =>   1
Atom   1O    basis set group =>   2
Atom   2O    basis set group =>   2
Atom   3C    basis set group =>   3
Atom   4C    basis set group =>   3
Atom   5H    basis set group =>   4
Atom   6H    basis set group =>   4
Atom   7H    basis set group =>   4
Atom   8O    basis set group =>   2
Atom   9C    basis set group =>   3
Atom  10O    basis set group =>   2
Atom  11C    basis set group =>   3
Atom  12H    basis set group =>   4
Atom  13H    basis set group =>   4
Atom  14H    basis set group =>   4
Atom  15O    basis set group =>   2
Atom  16Pd   basis set group =>   1
Atom  17O    basis set group =>   2
Atom  18C    basis set group =>   3
Atom  19H    basis set group =>   4
Atom  20H    basis set group =>   4
Atom  21C    basis set group =>   3
Atom  22H    basis set group =>   4
Atom  23O    basis set group =>   2
Atom  24C    basis set group =>   3
Atom  25O    basis set group =>   2
Atom  26C    basis set group =>   3
Atom  27H    basis set group =>   4
Atom  28H    basis set group =>   4
Atom  29H    basis set group =>   4
---------------------------------
AUXILIARY/J BASIS SET INFORMATION
---------------------------------
There are 4 groups of distinct atoms

 Group   1 Type Pd  : 11s5p5d3f3g contracted to 8s5p5d2f3g pattern {41111111/11111/11111/21/111}
 Group   2 Type O   : 12s5p4d2f1g contracted to 6s4p3d1f1g pattern {711111/2111/211/2/1}
 Group   3 Type C   : 12s5p4d2f1g contracted to 6s4p3d1f1g pattern {711111/2111/211/2/1}
 Group   4 Type H   : 5s2p1d contracted to 3s1p1d pattern {311/2/1}

Atom   0Pd   basis set group =>   1
Atom   1O    basis set group =>   2
Atom   2O    basis set group =>   2
Atom   3C    basis set group =>   3
Atom   4C    basis set group =>   3
Atom   5H    basis set group =>   4
Atom   6H    basis set group =>   4
Atom   7H    basis set group =>   4
Atom   8O    basis set group =>   2
Atom   9C    basis set group =>   3
Atom  10O    basis set group =>   2
Atom  11C    basis set group =>   3
Atom  12H    basis set group =>   4
Atom  13H    basis set group =>   4
Atom  14H    basis set group =>   4
Atom  15O    basis set group =>   2
Atom  16Pd   basis set group =>   1
Atom  17O    basis set group =>   2
Atom  18C    basis set group =>   3
Atom  19H    basis set group =>   4
Atom  20H    basis set group =>   4
Atom  21C    basis set group =>   3
Atom  22H    basis set group =>   4
Atom  23O    basis set group =>   2
Atom  24C    basis set group =>   3
Atom  25O    basis set group =>   2
Atom  26C    basis set group =>   3
Atom  27H    basis set group =>   4
Atom  28H    basis set group =>   4
Atom  29H    basis set group =>   4
-------------------------
ECP PARAMETER INFORMATION
-------------------------

 Group 1, Type Pd ECP Def2-ECP (replacing 28 core electrons, lmax=3)

Atom   0Pd   ECP group =>   1
Atom  16Pd   ECP group =>   1



           ************************************************************
           *        Program running with 16 parallel MPI-processes    *
           *              working on a common directory               *
           ************************************************************
------------------------------------------------------------------------------
                             ORCA STARTUP CALCULATIONS
                           -- RI-GTO INTEGRALS CHOSEN --
------------------------------------------------------------------------------
------------------------------------------------------------------------------
                   ___                                                        
                  /   \      - P O W E R E D   B Y -                         
                 /     \                                                     
                 |  |  |   _    _      __       _____    __    __             
                 |  |  |  | |  | |    /  \     |  _  \  |  |  /  |          
                  \  \/   | |  | |   /    \    | | | |  |  | /  /          
                 / \  \   | |__| |  /  /\  \   | |_| |  |  |/  /          
                |  |  |   |  __  | /  /__\  \  |    /   |      \           
                |  |  |   | |  | | |   __   |  |    \   |  |\   \          
                \     /   | |  | | |  |  |  |  | |\  \  |  | \   \       
                 \___/    |_|  |_| |__|  |__|  |_| \__\ |__|  \__/        
                                                                              
                      - O R C A' S   B I G   F R I E N D -                    
                                      &                                       
                       - I N T E G R A L  F E E D E R -                       
                                                                              
 v1 FN, 2020, v2 2021, v3 2022-2024                                           
------------------------------------------------------------------------------


----------------------
SHARK INTEGRAL PACKAGE
----------------------

Number of atoms                             ...     30
Number of basis functions                   ...    296
Number of shells                            ...    140
Maximum angular momentum                    ...      2
Integral batch strategy                     ... SHARK/LIBINT Hybrid
RI-J (if used) integral strategy            ... SPLIT-RIJ (Revised 2003 algorithm where possible)
Printlevel                                  ...      1
Contraction scheme used                     ... SEGMENTED contraction
Prescreening option                         ... SCHWARTZ
   Thresh                                   ... 2.500e-11
   Tcut                                     ... 2.500e-12
   Tpresel                                  ... 2.500e-12 
Coulomb Range Separation                    ... NOT USED
Exchange Range Separation                   ... NOT USED
Multipole approximations                    ... NOT USED
Finite Nucleus Model                        ... NOT USED
CABS basis                                  ... NOT available
Auxiliary Coulomb fitting basis             ... AVAILABLE
   # of basis functions in Aux-J            ...   1094
   # of shells in Aux-J                     ...    346
   Maximum angular momentum in Aux-J        ...      4
Auxiliary J/K fitting basis                 ... NOT available
Auxiliary Correlation fitting basis         ... NOT available
Auxiliary 'external' fitting basis          ... NOT available

Checking pre-screening integrals            ... done (  0.1 sec) Dimension = 140
Check shell pair data                       ... done (  0.1 sec)
Shell pair information
Shell pair cut-off parameter TPreSel        ...   2.5e-12
Total number of shell pairs                 ...      9870
Shell pairs after pre-screening             ...      7856
Total number of primitive shell pairs       ...     38500
Primitive shell pairs kept                  ...     19078
          la=0 lb=0:   2574 shell pairs
          la=1 lb=0:   2638 shell pairs
          la=1 lb=1:    682 shell pairs
          la=2 lb=0:   1186 shell pairs
          la=2 lb=1:    637 shell pairs
          la=2 lb=2:    139 shell pairs

Calculating one electron integrals          ... done (  0.0 sec)
Calculating ECP integrals                   ... done (  0.8 sec)
Calculating RI/J V-Matrix + Cholesky decomp.... done (  0.1 sec)
Calculating Nuclear repulsion               ... done (  0.0 sec) ENN=   1909.308553152348 Eh

Diagonalization of the overlap matrix:
Smallest eigenvalue                        ... 2.458e-03
Time for diagonalization                   ...    0.019 sec
Threshold for overlap eigenvalues          ... 1.000e-07
Number of eigenvalues below threshold      ... 0
Time for construction of square roots      ...    0.024 sec
Total time needed                          ...    0.116 sec

-------------------
DFT GRID GENERATION
-------------------

General Integration Accuracy     IntAcc      ... 4.388
Radial Grid Type                 RadialGrid  ... OptM3 with GC (2021)
Angular Grid (max. ang.)         AngularGrid ... 4 (Lebedev-302)
Angular grid pruning method      GridPruning ... 4 (adaptive)
Weight generation scheme         WeightScheme... mBecke (2022)
Basis function cutoff            BFCut       ... 1.0000e-11
Integration weight cutoff        WCut        ... 1.0000e-14
Partially contracted basis set               ... off
Rotationally invariant grid construction     ... off
Angular grids for H and He will be reduced by one unit

Total number of grid points                  ...   155096
Total number of batches                      ...     2441
Average number of points per batch           ...       63
Average number of grid points per atom       ...     5170

--------------------
COSX GRID GENERATION
--------------------

GRIDX 1
-------
General Integration Accuracy     IntAcc      ... 3.816
Radial Grid Type                 RadialGrid  ... OptM3 with GC (2021)
Angular Grid (max. ang.)         AngularGrid ... 1 (Lebedev-50)
Angular grid pruning method      GridPruning ... 4 (adaptive)
Weight generation scheme         WeightScheme... mBecke (2022)
Basis function cutoff            BFCut       ... 1.0000e-11
Integration weight cutoff        WCut        ... 1.0000e-14
Partially contracted basis set               ... on
Rotationally invariant grid construction     ... off
Angular grids for H and He will be reduced by one unit

Total number of grid points                  ...    26751
Total number of batches                      ...      224
Average number of points per batch           ...      119
Average number of grid points per atom       ...      892
UseSFitting                                  ... on

GRIDX 2
-------
General Integration Accuracy     IntAcc      ... 4.020
Radial Grid Type                 RadialGrid  ... OptM3 with GC (2021)
Angular Grid (max. ang.)         AngularGrid ... 2 (Lebedev-110)
Angular grid pruning method      GridPruning ... 4 (adaptive)
Weight generation scheme         WeightScheme... mBecke (2022)
Basis function cutoff            BFCut       ... 1.0000e-11
Integration weight cutoff        WCut        ... 1.0000e-14
Partially contracted basis set               ... on
Rotationally invariant grid construction     ... off
Angular grids for H and He will be reduced by one unit

Total number of grid points                  ...    47311
Total number of batches                      ...      386
Average number of points per batch           ...      122
Average number of grid points per atom       ...     1577
UseSFitting                                  ... on

GRIDX 3
-------
General Integration Accuracy     IntAcc      ... 4.338
Radial Grid Type                 RadialGrid  ... OptM3 with GC (2021)
Angular Grid (max. ang.)         AngularGrid ... 3 (Lebedev-194)
Angular grid pruning method      GridPruning ... 4 (adaptive)
Weight generation scheme         WeightScheme... mBecke (2022)
Basis function cutoff            BFCut       ... 1.0000e-11
Integration weight cutoff        WCut        ... 1.0000e-14
Partially contracted basis set               ... on
Rotationally invariant grid construction     ... off
Angular grids for H and He will be reduced by one unit

Total number of grid points                  ...    92587
Total number of batches                      ...      741
Average number of points per batch           ...      124
Average number of grid points per atom       ...     3086
UseSFitting                                  ... on
Initializing property integral containers    ... done (  0.2 sec)

SHARK setup successfully completed in   5.7 seconds

Maximum memory used throughout the entire STARTUP-calculation: 39.7 MB


           ************************************************************
           *        Program running with 16 parallel MPI-processes    *
           *              working on a common directory               *
           ************************************************************
-------------------------------------------------------------------------------
                                 ORCA GUESS
                   Start orbitals & Density for SCF / CASSCF
-------------------------------------------------------------------------------

------------
SCF SETTINGS
------------
Hamiltonian:
 Density Functional     Method          .... DFT(GTOs)
 Exchange Functional    Exchange        .... PBE
   PBE kappa parameter   XKappa         ....  0.804000
   PBE mue parameter    XMuePBE         ....  0.219520
 Correlation Functional Correlation     .... PBE
   PBE beta parameter  CBetaPBE         ....  0.066725
 LDA part of GGA corr.  LDAOpt          .... PW91-LDA
 Gradients option       PostSCFGGA      .... off
 Hybrid DFT is turned on
   Fraction HF Exchange ScalHFX         ....  0.250000
   Scaling of DF-GGA-X  ScalDFX         ....  0.750000
   Scaling of DF-GGA-C  ScalDFC         ....  1.000000
   Scaling of DF-LDA-C  ScalLDAC        ....  1.000000
   Perturbative correction              ....  0.000000
   NL short-range parameter             ....  6.900000
 RI-approximation to the Coulomb term is turned on
   Number of AuxJ basis functions       .... 1094
   RIJ-COSX (HFX calculated with COS-X)).... on


General Settings:
 Integral files         IntName         .... CS_PdOAc_002_freq_01
 Hartree-Fock type      HFTyp           .... RHF
 Total Charge           Charge          ....    0
 Multiplicity           Mult            ....    1
 Number of Electrons    NEL             ....  160
 Basis Dimension        Dim             ....  296
 Nuclear Repulsion      ENuc            ....   1909.3085531523 Eh

Convergence Acceleration:
 AO-DIIS                CNVDIIS         .... on
   Start iteration      DIISMaxIt       ....     0
   Startup error        DIISStart       ....  0.200000
   # of expansion vecs  DIISMaxEq       ....     5
   Bias factor          DIISBfac        ....   1.050
   Max. coefficient     DIISMaxC        ....  10.000
 MO-DIIS                CNVKDIIS        .... off
 Trust-Rad. Augm. Hess. CNVTRAH         .... auto
   Auto Start mean grad. ratio tolernc. ....  1.125000
   Auto Start start iteration           ....    50
   Auto Start num. interpolation iter.  ....    10
   Max. Number of Micro iterations      ....    24
   Max. Number of Macro iterations      .... Maxiter - #DIIS iter
   Number of Davidson start vectors     ....     2
   Converg. threshold    (grad. norm)   ....   1.000e-05
   Grad. Scal. Fac. for Micro threshold ....   0.100
   Minimum threshold for Micro iter.    ....   1.000e-02
   NR start threshold (gradient norm)   ....   1.000e-04
   Initial trust radius                 ....   0.400
   Minimum AH scaling param. (alpha)    ....   1.000
   Maximum AH scaling param. (alpha)    .... 1000.000
   Quad. conv. algorithm                .... NR
   White noise on init. David. guess    .... on
   Maximum white noise                  ....   0.010
   Pseudo random numbers                .... off
   Inactive MOs                         .... canonical
   Orbital update algorithm             .... Taylor
   Preconditioner                       .... Diag
   Full preconditioner red. dimension   ....   250
 SOSCF                  CNVSOSCF        .... on
   Start iteration      SOSCFMaxIt      ....   150
   Startup grad/error   SOSCFStart      ....  0.001000
   Hessian update       SOSCFHessUp     .... L-BFGS
 Level Shifting         CNVShift        .... on
   Level shift para.    LevelShift      ....    0.2500
   Turn off err/grad.   ShiftErr        ....    0.0000
 Zerner damping         CNVZerner       .... off
 Static damping         CNVDamp         .... on
   Fraction old density DampFac         ....    0.8500
   Max. Damping (<1)    DampMax         ....    0.9800
   Min. Damping (>=0)   DampMin         ....    0.0000
   Turn off err/grad.   DampErr         ....    0.0300

SCF Procedure:
 Maximum # iterations   MaxIter         ....  1500
 SCF integral mode      SCFMode         .... Direct
   Integral package                     .... SHARK and LIBINT hybrid scheme
 Reset frequency        DirectResetFreq ....    20
 Integral Threshold     Thresh          ....  2.500e-11 Eh
 Primitive CutOff       TCut            ....  2.500e-12 Eh

Convergence Tolerance:
 Convergence Check Mode ConvCheckMode   .... Total+1el-Energy
 Convergence forced     ConvForced      .... 0
 Energy Change          TolE            ....  1.000e-08 Eh
 1-El. energy change                    ....  1.000e-05 Eh
 Orbital Gradient       TolG            ....  1.000e-05
 Orbital Rotation angle TolX            ....  1.000e-05
 DIIS Error             TolErr          ....  5.000e-07

------------------------------
INITIAL GUESS: MODEL POTENTIAL
------------------------------
Loading Hartree-Fock densities                     ... done
Atomic calculation to generate a density for atom 0 (Pd with ECP)
  Multiplicity assumed   :    3
  Atomic configuration   : 1s2 2s2 2p6 3s2 3p6 4s2 3d10 4p6 5s2 4d8 
  Number of open shells  : 1
  Command: /opt/apps/software/ORCA/6.0.0-gompi-2023b/bin/orca CS_PdOAc_002_freq_01_atom46.inp "" > CS_PdOAc_002_freq_01_atom46.out
Returned from the atomic calculation with res=0
Calculating cut-offs                               ... done
Initializing the effective Hamiltonian             ... done
Setting up the integral package (SHARK)            ... done
Starting the Coulomb interaction                   ... done (   0.2 sec)
Making the grid                                    ... done (   0.5 sec)
Mapping shells                                     ... done
Starting the XC term evaluation                    ... done (   0.1 sec)
  promolecular density results
     # of electrons  =    215.982127907
     EX              =   -386.844708439
     EC              =     -9.070804980
     EX+EC           =   -395.915513420
Transforming the Hamiltonian                       ... done (   0.1 sec)
Diagonalizing the Hamiltonian                      ... done (   0.0 sec)
Back transforming the eigenvectors                 ... done (   0.1 sec)
Now organizing SCF variables                       ... done
                      ------------------
                      INITIAL GUESS DONE (  12.7 sec)
                      ------------------
             **** ENERGY FILE WAS UPDATED (CS_PdOAc_002_freq_01.en.tmp) ****
Finished Guess after  14.0 sec
Maximum memory used throughout the entire GUESS-calculation: 23.2 MB


           ************************************************************
           *        Program running with 16 parallel MPI-processes    *
           *              working on a common directory               *
           ************************************************************

-------------------------------------------------------------------------------------------
                                      ORCA LEAN-SCF
                              memory conserving SCF solver
-------------------------------------------------------------------------------------------

----------------------------------------D-I-I-S--------------------------------------------
Iteration    Energy (Eh)           Delta-E    RMSDP     MaxDP     DIISErr   Damp  Time(sec)
-------------------------------------------------------------------------------------------
               ***  Starting incremental Fock matrix formation  ***
    1    -1167.5611342956487988     0.00e+00  1.42e-03  3.53e-02  4.65e-01  0.850   4.5
    2    -1167.7003228997198221    -1.39e-01  1.33e-03  3.15e-02  3.94e-01  0.850   4.1
                               ***Turning on AO-DIIS***
    3    -1167.7883381263893625    -8.80e-02  6.73e-04  2.13e-02  3.33e-01  0.850   4.0
    4    -1167.8438083538187584    -5.55e-02  4.35e-04  1.70e-02  2.81e-01  0.850   3.8
    5    -1167.8835462021313560    -3.97e-02  3.22e-04  1.37e-02  2.38e-01  0.850   3.9
    6    -1167.9150094296703628    -3.15e-02  2.68e-04  1.13e-02  2.03e-01  0.850   4.9
    7    -1167.9411429188983220    -2.61e-02  2.40e-04  9.80e-03  1.73e-01  0.850   4.1
    8    -1167.9630278314036786    -2.19e-02  2.10e-04  8.83e-03  1.47e-01  0.850   4.3
    9    -1167.9810218822951811    -1.80e-02  1.77e-04  7.60e-03  1.25e-01  0.850   4.4
   10    -1167.9957944407285595    -1.48e-02  1.47e-04  6.31e-03  1.06e-01  0.850   4.2
   11    -1168.0080062565514254    -1.22e-02  1.22e-04  5.24e-03  8.99e-02  0.850   4.7
   12    -1168.0181671087045743    -1.02e-02  1.03e-04  4.45e-03  7.64e-02  0.850   4.3
   13    -1168.0266530516812509    -8.49e-03  8.73e-05  3.84e-03  6.50e-02  0.850   4.2
   14    -1168.0337554872464807    -7.10e-03  7.39e-05  3.29e-03  5.52e-02  0.850   4.7
   15    -1168.0397132593368497    -5.96e-03  6.22e-05  2.77e-03  4.69e-02  0.850   3.9
   16    -1168.0447223032272177    -5.01e-03  5.24e-05  2.33e-03  3.98e-02  0.850   3.8
   17    -1168.0489417342444085    -4.22e-03  4.41e-05  1.98e-03  3.38e-02  0.850   3.9
   18    -1168.0525011446413828    -3.56e-03  3.72e-05  1.69e-03  2.88e-02  0.850   4.0
   19    -1168.0555072959921290    -3.01e-03  2.10e-04  9.61e-03  2.44e-02  0.000   3.8
                              *** Initializing SOSCF ***
---------------------------------------S-O-S-C-F--------------------------------------
Iteration    Energy (Eh)           Delta-E    RMSDP     MaxDP     MaxGrad    Time(sec)
--------------------------------------------------------------------------------------
   20    -1168.0722330273449643    -1.67e-02  1.32e-05  2.95e-04  3.43e-04     4.1
               *** Restarting incremental Fock matrix formation ***
   21    -1168.0721678997704203     6.51e-05  1.10e-05  3.28e-04  5.82e-05     4.2
   22    -1168.0721678239362973     7.58e-08  4.40e-06  1.30e-04  1.10e-04     3.8
   23    -1168.0721681681568498    -3.44e-07  8.14e-07  2.39e-05  5.87e-06     4.3
   24    -1168.0721681631614501     5.00e-09  3.83e-07  1.40e-05  5.92e-06     4.1
                 **** Energy Check signals convergence ****

               *****************************************************
               *                     SUCCESS                       *
               *           SCF CONVERGED AFTER  24 CYCLES          *
               *****************************************************

Recomputing exchange energy using gridx3       ... done (    2.840 sec)
Old exchange energy                            :    -33.744300507 Eh
New exchange energy                            :    -33.744312068 Eh
Exchange energy change after final integration :     -0.000011561 Eh
Total energy after final integration           :  -1168.072179724 Eh
             **** ENERGY FILE WAS UPDATED (CS_PdOAc_002_freq_01.en.tmp) ****

----------------
TOTAL SCF ENERGY
----------------

Total Energy       :      -1168.07217972378635 Eh          -31784.85992 eV

Components:
Nuclear Repulsion  :       1909.30855315234817 Eh           51954.92707 eV
Electronic Energy  :      -3077.38072131550962 Eh          -83739.78668 eV
One Electron Energy:      -5504.79020374768061 Eh         -149792.95677 eV
Two Electron Energy:       2427.40948243217099 Eh           66053.17010 eV

Virial components:
Potential Energy   :      -2169.25934083698212 Eh          -59028.54762 eV
Kinetic Energy     :       1001.18716111319588 Eh           27243.68770 eV
Virial Ratio       :          2.16668713412688

DFT components:
N(Alpha)           :       80.000010583188 electrons
N(Beta)            :       80.000010583188 electrons
N(Total)           :      160.000021166375 electrons
E(X)               :     -101.414363615821 Eh       
E(C)               :       -5.784072436959 Eh       
E(XC)              :     -107.198436052780 Eh       

---------------
SCF CONVERGENCE
---------------

  Last Energy change         ...   -4.9954e-09  Tolerance :   1.0000e-08
  Last MAX-Density change    ...    1.3991e-05  Tolerance :   1.0000e-07
  Last RMS-Density change    ...    3.8275e-07  Tolerance :   5.0000e-09
  Last DIIS Error            ...    3.4325e-04  Tolerance :   5.0000e-07
  Last Orbital Gradient      ...    5.9215e-06  Tolerance :   1.0000e-05
  Last Orbital Rotation      ...    7.9755e-06  Tolerance :   1.0000e-05


----------------
ORBITAL ENERGIES
----------------

  NO   OCC          E(Eh)            E(eV) 
   0   2.0000     -19.240943      -523.5727 
   1   2.0000     -19.240738      -523.5671 
   2   2.0000     -19.240416      -523.5583 
   3   2.0000     -19.240242      -523.5536 
   4   2.0000     -19.237821      -523.4877 
   5   2.0000     -19.237806      -523.4873 
   6   2.0000     -19.237671      -523.4836 
   7   2.0000     -19.237527      -523.4797 
   8   2.0000     -10.375294      -282.3261 
   9   2.0000     -10.375152      -282.3222 
  10   2.0000     -10.373292      -282.2716 
  11   2.0000     -10.373254      -282.2706 
  12   2.0000     -10.251457      -278.9563 
  13   2.0000     -10.251372      -278.9540 
  14   2.0000     -10.239412      -278.6286 
  15   2.0000     -10.239366      -278.6273 
  16   2.0000      -3.546067       -96.4934 
  17   2.0000      -3.545945       -96.4901 
  18   2.0000      -2.229692       -60.6730 
  19   2.0000      -2.229376       -60.6644 
  20   2.0000      -2.222985       -60.4905 
  21   2.0000      -2.222855       -60.4869 
  22   2.0000      -2.181022       -59.3486 
  23   2.0000      -2.179330       -59.3026 
  24   2.0000      -1.135821       -30.9073 
  25   2.0000      -1.135301       -30.8931 
  26   2.0000      -1.119748       -30.4699 
  27   2.0000      -1.116063       -30.3696 
  28   2.0000      -1.030205       -28.0333 
  29   2.0000      -1.027356       -27.9558 
  30   2.0000      -1.019012       -27.7287 
  31   2.0000      -1.018519       -27.7153 
  32   2.0000      -0.781286       -21.2599 
  33   2.0000      -0.780947       -21.2507 
  34   2.0000      -0.765369       -20.8267 
  35   2.0000      -0.764152       -20.7936 
  36   2.0000      -0.592516       -16.1232 
  37   2.0000      -0.586864       -15.9694 
  38   2.0000      -0.574491       -15.6327 
  39   2.0000      -0.568567       -15.4715 
  40   2.0000      -0.548164       -14.9163 
  41   2.0000      -0.542070       -14.7505 
  42   2.0000      -0.520605       -14.1664 
  43   2.0000      -0.518609       -14.1121 
  44   2.0000      -0.514340       -13.9959 
  45   2.0000      -0.513720       -13.9790 
  46   2.0000      -0.508165       -13.8279 
  47   2.0000      -0.502425       -13.6717 
  48   2.0000      -0.502028       -13.6609 
  49   2.0000      -0.499439       -13.5904 
  50   2.0000      -0.497990       -13.5510 
  51   2.0000      -0.486968       -13.2511 
  52   2.0000      -0.433609       -11.7991 
  53   2.0000      -0.433203       -11.7881 
  54   2.0000      -0.428449       -11.6587 
  55   2.0000      -0.427897       -11.6437 
  56   2.0000      -0.425572       -11.5804 
  57   2.0000      -0.421962       -11.4822 
  58   2.0000      -0.416859       -11.3433 
  59   2.0000      -0.404994       -11.0205 
  60   2.0000      -0.390561       -10.6277 
  61   2.0000      -0.387632       -10.5480 
  62   2.0000      -0.381929       -10.3928 
  63   2.0000      -0.374365       -10.1870 
  64   2.0000      -0.368156       -10.0180 
  65   2.0000      -0.353225        -9.6118 
  66   2.0000      -0.346230        -9.4214 
  67   2.0000      -0.345185        -9.3930 
  68   2.0000      -0.338026        -9.1982 
  69   2.0000      -0.332200        -9.0396 
  70   2.0000      -0.325287        -8.8515 
  71   2.0000      -0.321018        -8.7353 
  72   2.0000      -0.318811        -8.6753 
  73   2.0000      -0.310259        -8.4426 
  74   2.0000      -0.296797        -8.0762 
  75   2.0000      -0.293735        -7.9929 
  76   2.0000      -0.288630        -7.8540 
  77   2.0000      -0.281103        -7.6492 
  78   2.0000      -0.277963        -7.5638 
  79   2.0000      -0.242874        -6.6090 
  80   0.0000      -0.099653        -2.7117 
  81   0.0000      -0.090759        -2.4697 
  82   0.0000      -0.011768        -0.3202 
  83   0.0000      -0.000620        -0.0169 
  84   0.0000       0.007734         0.2104 
  85   0.0000       0.011549         0.3143 
  86   0.0000       0.025708         0.6995 
  87   0.0000       0.041378         1.1260 
  88   0.0000       0.044902         1.2218 
  89   0.0000       0.055990         1.5236 
  90   0.0000       0.065488         1.7820 
*Only the first 10 virtual orbitals were printed.

                    ********************************
                    * MULLIKEN POPULATION ANALYSIS *
                    ********************************

-----------------------
MULLIKEN ATOMIC CHARGES
-----------------------
   0 Pd:    0.444339
   1 O :   -0.358335
   2 O :   -0.357426
   3 C :    0.329840
   4 C :   -0.352744
   5 H :    0.162992
   6 H :    0.162442
   7 H :    0.166478
   8 O :   -0.348390
   9 C :    0.330005
  10 O :   -0.347230
  11 C :   -0.329798
  12 H :    0.166307
  13 H :    0.167194
  14 H :    0.164598
  15 O :   -0.346945
  16 Pd:    0.444215
  17 O :   -0.348824
  18 C :    0.329951
  19 H :    0.164572
  20 H :    0.166980
  21 C :   -0.329927
  22 H :    0.166368
  23 O :   -0.358669
  24 C :    0.329398
  25 O :   -0.357307
  26 C :   -0.351496
  27 H :    0.166220
  28 H :    0.162857
  29 H :    0.162338
Sum of atomic charges:   -0.0000000

--------------------------------
MULLIKEN REDUCED ORBITAL CHARGES
--------------------------------
  0 Pds       :     2.497362  s :     2.497362
      pz      :     2.143808  p :     6.359064
      px      :     2.062160
      py      :     2.153095
      dz2     :     1.178878  d :     8.699236
      dxz     :     1.971307
      dyz     :     1.913942
      dx2y2   :     1.628331
      dxy     :     2.006778

  1 O s       :     3.781308  s :     3.781308
      pz      :     1.531881  p :     4.561627
      px      :     1.443915
      py      :     1.585831
      dz2     :     0.002400  d :     0.015400
      dxz     :     0.004103
      dyz     :     0.001337
      dx2y2   :     0.003790
      dxy     :     0.003770

  2 O s       :     3.780835  s :     3.780835
      pz      :     1.561368  p :     4.561165
      px      :     1.401508
      py      :     1.598288
      dz2     :     0.002530  d :     0.015426
      dxz     :     0.003685
      dyz     :     0.001150
      dx2y2   :     0.004187
      dxy     :     0.003874

  3 C s       :     3.042435  s :     3.042435
      pz      :     0.915237  p :     2.485498
      px      :     0.804107
      py      :     0.766154
      dz2     :     0.030639  d :     0.142227
      dxz     :     0.041073
      dyz     :     0.011491
      dx2y2   :     0.026473
      dxy     :     0.032552

  4 C s       :     3.131110  s :     3.131110
      pz      :     0.983053  p :     3.193285
      px      :     1.103201
      py      :     1.107031
      dz2     :     0.008606  d :     0.028349
      dxz     :     0.005348
      dyz     :     0.003042
      dx2y2   :     0.006177
      dxy     :     0.005176

  5 H s       :     0.837008  s :     0.837008

  6 H s       :     0.837558  s :     0.837558

  7 H s       :     0.833522  s :     0.833522

  8 O s       :     3.831740  s :     3.831740
      pz      :     1.294656  p :     4.499963
      px      :     1.589099
      py      :     1.616208
      dz2     :     0.007238  d :     0.016687
      dxz     :     0.004415
      dyz     :     0.003005
      dx2y2   :     0.001186
      dxy     :     0.000843

  9 C s       :     3.038320  s :     3.038320
      pz      :     0.841378  p :     2.489371
      px      :     0.772911
      py      :     0.875082
      dz2     :     0.033866  d :     0.142304
      dxz     :     0.023944
      dyz     :     0.049377
      dx2y2   :     0.014983
      dxy     :     0.020133

 10 O s       :     3.831321  s :     3.831321
      pz      :     1.603835  p :     4.499207
      px      :     1.593322
      py      :     1.302050
      dz2     :     0.003021  d :     0.016702
      dxz     :     0.001550
      dyz     :     0.004579
      dx2y2   :     0.003907
      dxy     :     0.003645

 11 C s       :     3.089332  s :     3.089332
      pz      :     1.065831  p :     3.212257
      px      :     1.104646
      py      :     1.041780
      dz2     :     0.004080  d :     0.028208
      dxz     :     0.005354
      dyz     :     0.008323
      dx2y2   :     0.005974
      dxy     :     0.004477

 12 H s       :     0.833693  s :     0.833693

 13 H s       :     0.832806  s :     0.832806

 14 H s       :     0.835402  s :     0.835402

 15 O s       :     3.831172  s :     3.831172
      pz      :     1.302931  p :     4.499081
      px      :     1.578666
      py      :     1.617484
      dz2     :     0.007069  d :     0.016693
      dxz     :     0.003878
      dyz     :     0.003569
      dx2y2   :     0.000993
      dxy     :     0.001183

 16 Pds       :     2.497695  s :     2.497695
      pz      :     2.142042  p :     6.359004
      px      :     2.081097
      py      :     2.135865
      dz2     :     1.230036  d :     8.699086
      dxz     :     1.872541
      dyz     :     1.972762
      dx2y2   :     1.831613
      dxy     :     1.792134

 17 O s       :     3.831796  s :     3.831796
      pz      :     1.604029  p :     4.500349
      px      :     1.546952
      py      :     1.349367
      dz2     :     0.002978  d :     0.016680
      dxz     :     0.002055
      dyz     :     0.004069
      dx2y2   :     0.004030
      dxy     :     0.003547

 18 C s       :     3.038164  s :     3.038164
      pz      :     0.840136  p :     2.489586
      px      :     0.803194
      py      :     0.846256
      dz2     :     0.033654  d :     0.142298
      dxz     :     0.027589
      dyz     :     0.044559
      dx2y2   :     0.017520
      dxy     :     0.018976

 19 H s       :     0.835428  s :     0.835428

 20 H s       :     0.833020  s :     0.833020

 21 C s       :     3.089294  s :     3.089294
      pz      :     1.070429  p :     3.212422
      px      :     1.082845
      py      :     1.059148
      dz2     :     0.001640  d :     0.028211
      dxz     :     0.007981
      dyz     :     0.008647
      dx2y2   :     0.001764
      dxy     :     0.008179

 22 H s       :     0.833632  s :     0.833632

 23 O s       :     3.781338  s :     3.781338
      pz      :     1.595763  p :     4.561917
      px      :     1.332745
      py      :     1.633410
      dz2     :     0.001750  d :     0.015414
      dxz     :     0.004243
      dyz     :     0.000646
      dx2y2   :     0.005764
      dxy     :     0.003011

 24 C s       :     3.042617  s :     3.042617
      pz      :     0.764634  p :     2.485753
      px      :     0.810803
      py      :     0.910316
      dz2     :     0.007743  d :     0.142232
      dxz     :     0.032903
      dyz     :     0.011623
      dx2y2   :     0.046641
      dxy     :     0.043322

 25 O s       :     3.780959  s :     3.780959
      pz      :     1.599822  p :     4.560925
      px      :     1.509486
      py      :     1.451618
      dz2     :     0.001712  d :     0.015423
      dxz     :     0.003027
      dyz     :     0.001835
      dx2y2   :     0.003521
      dxy     :     0.005329

 26 C s       :     3.129908  s :     3.129908
      pz      :     1.103101  p :     3.193241
      px      :     1.097286
      py      :     0.992854
      dz2     :     0.005420  d :     0.028347
      dxz     :     0.006086
      dyz     :     0.004808
      dx2y2   :     0.007557
      dxy     :     0.004477

 27 H s       :     0.833780  s :     0.833780

 28 H s       :     0.837143  s :     0.837143

 29 H s       :     0.837662  s :     0.837662



                     *******************************
                     * LOEWDIN POPULATION ANALYSIS *
                     *******************************

----------------------
LOEWDIN ATOMIC CHARGES
----------------------
   0 Pd:   -0.131335
   1 O :   -0.075031
   2 O :   -0.073849
   3 C :    0.131591
   4 C :   -0.345481
   5 H :    0.148595
   6 H :    0.147582
   7 H :    0.156186
   8 O :   -0.097860
   9 C :    0.123431
  10 O :   -0.096416
  11 C :   -0.353428
  12 H :    0.154879
  13 H :    0.158175
  14 H :    0.153025
  15 O :   -0.096691
  16 Pd:   -0.131437
  17 O :   -0.098047
  18 C :    0.123428
  19 H :    0.152873
  20 H :    0.158076
  21 C :   -0.353449
  22 H :    0.155035
  23 O :   -0.074542
  24 C :    0.131650
  25 O :   -0.073953
  26 C :   -0.345351
  27 H :    0.156167
  28 H :    0.148411
  29 H :    0.147767

-------------------------------
LOEWDIN REDUCED ORBITAL CHARGES
-------------------------------
  0 Pds       :     2.431992  s :     2.431992
      pz      :     2.245402  p :     6.632850
      px      :     2.126623
      py      :     2.260826
      dz2     :     1.335723  d :     9.066493
      dxz     :     1.997284
      dyz     :     1.969712
      dx2y2   :     1.728289
      dxy     :     2.035485

  1 O s       :     3.457236  s :     3.457236
      pz      :     1.515673  p :     4.589223
      px      :     1.518168
      py      :     1.555382
      dz2     :     0.004717  d :     0.028572
      dxz     :     0.009183
      dyz     :     0.002485
      dx2y2   :     0.006903
      dxy     :     0.005284

  2 O s       :     3.457065  s :     3.457065
      pz      :     1.537995  p :     4.588169
      px      :     1.485343
      py      :     1.564830
      dz2     :     0.004888  d :     0.028616
      dxz     :     0.008481
      dyz     :     0.001954
      dx2y2   :     0.008132
      dxy     :     0.005160

  3 C s       :     2.816994  s :     2.816994
      pz      :     1.015797  p :     2.741719
      px      :     0.951968
      py      :     0.773954
      dz2     :     0.071259  d :     0.309697
      dxz     :     0.089932
      dyz     :     0.020446
      dx2y2   :     0.062976
      dxy     :     0.065084

  4 C s       :     2.958594  s :     2.958594
      pz      :     1.047228  p :     3.320084
      px      :     1.137797
      py      :     1.135059
      dz2     :     0.022109  d :     0.066803
      dxz     :     0.013073
      dyz     :     0.007411
      dx2y2   :     0.013082
      dxy     :     0.011128

  5 H s       :     0.851405  s :     0.851405

  6 H s       :     0.852418  s :     0.852418

  7 H s       :     0.843814  s :     0.843814

  8 O s       :     3.499090  s :     3.499090
      pz      :     1.410045  p :     4.569966
      px      :     1.563736
      py      :     1.596184
      dz2     :     0.015064  d :     0.028804
      dxz     :     0.005740
      dyz     :     0.005312
      dx2y2   :     0.001595
      dxy     :     0.001093

  9 C s       :     2.828793  s :     2.828793
      pz      :     0.975547  p :     2.743087
      px      :     0.764040
      py      :     1.003500
      dz2     :     0.078712  d :     0.304690
      dxz     :     0.044698
      dyz     :     0.110573
      dx2y2   :     0.034942
      dxy     :     0.035766

 10 O s       :     3.499033  s :     3.499033
      pz      :     1.606460  p :     4.568558
      px      :     1.565048
      py      :     1.397051
      dz2     :     0.004795  d :     0.028825
      dxz     :     0.001723
      dyz     :     0.009025
      dx2y2   :     0.008579
      dxy     :     0.004703

 11 C s       :     2.952790  s :     2.952790
      pz      :     1.110411  p :     3.333591
      px      :     1.133027
      py      :     1.090153
      dz2     :     0.009518  d :     0.067047
      dxz     :     0.012277
      dyz     :     0.020638
      dx2y2   :     0.014130
      dxy     :     0.010485

 12 H s       :     0.845121  s :     0.845121

 13 H s       :     0.841825  s :     0.841825

 14 H s       :     0.846975  s :     0.846975

 15 O s       :     3.499284  s :     3.499284
      pz      :     1.414361  p :     4.568598
      px      :     1.553546
      py      :     1.600691
      dz2     :     0.014420  d :     0.028810
      dxz     :     0.005389
      dyz     :     0.006077
      dx2y2   :     0.001367
      dxy     :     0.001557

 16 Pds       :     2.432082  s :     2.432082
      pz      :     2.241580  p :     6.632794
      px      :     2.165649
      py      :     2.225565
      dz2     :     1.381714  d :     9.066560
      dxz     :     1.911496
      dyz     :     2.019820
      dx2y2   :     1.903427
      dxy     :     1.850103

 17 O s       :     3.498960  s :     3.498960
      pz      :     1.605634  p :     4.570292
      px      :     1.534604
      py      :     1.430053
      dz2     :     0.004723  d :     0.028795
      dxz     :     0.002866
      dyz     :     0.007827
      dx2y2   :     0.007127
      dxy     :     0.006252

 18 C s       :     2.828748  s :     2.828748
      pz      :     0.971224  p :     2.743139
      px      :     0.818741
      py      :     0.953174
      dz2     :     0.077414  d :     0.304685
      dxz     :     0.054525
      dyz     :     0.098618
      dx2y2   :     0.035115
      dxy     :     0.039014

 19 H s       :     0.847127  s :     0.847127

 20 H s       :     0.841924  s :     0.841924

 21 C s       :     2.952765  s :     2.952765
      pz      :     1.111473  p :     3.333636
      px      :     1.118937
      py      :     1.103226
      dz2     :     0.003765  d :     0.067049
      dxz     :     0.018971
      dyz     :     0.020955
      dx2y2   :     0.003665
      dxy     :     0.019692

 22 H s       :     0.844965  s :     0.844965

 23 O s       :     3.456954  s :     3.456954
      pz      :     1.561498  p :     4.588986
      px      :     1.433823
      py      :     1.593664
      dz2     :     0.003655  d :     0.028602
      dxz     :     0.005532
      dyz     :     0.001145
      dx2y2   :     0.011777
      dxy     :     0.006494

 24 C s       :     2.816954  s :     2.816954
      pz      :     0.767851  p :     2.741687
      px      :     0.962437
      py      :     1.011399
      dz2     :     0.018705  d :     0.309709
      dxz     :     0.063192
      dyz     :     0.020354
      dx2y2   :     0.110491
      dxy     :     0.096967

 25 O s       :     3.457177  s :     3.457177
      pz      :     1.564065  p :     4.588169
      px      :     1.566683
      py      :     1.457421
      dz2     :     0.003699  d :     0.028606
      dxz     :     0.003538
      dyz     :     0.002898
      dx2y2   :     0.006648
      dxy     :     0.011822

 26 C s       :     2.958532  s :     2.958532
      pz      :     1.133809  p :     3.320008
      px      :     1.133835
      py      :     1.052363
      dz2     :     0.011921  d :     0.066811
      dxz     :     0.013657
      dyz     :     0.011516
      dx2y2   :     0.018661
      dxy     :     0.011057

 27 H s       :     0.843833  s :     0.843833

 28 H s       :     0.851589  s :     0.851589

 29 H s       :     0.852233  s :     0.852233



                      *****************************
                      * MAYER POPULATION ANALYSIS *
                      *****************************

  NA   - Mulliken gross atomic population
  ZA   - Total nuclear charge
  QA   - Mulliken gross atomic charge
  VA   - Mayer's total valence
  BVA  - Mayer's bonded valence
  FA   - Mayer's free valence

  ATOM       NA         ZA         QA         VA         BVA        FA
  0 Pd    17.5557    18.0000     0.4443     2.6365     2.6365     0.0000
  1 O      8.3583     8.0000    -0.3583     2.2006     2.2006    -0.0000
  2 O      8.3574     8.0000    -0.3574     2.2059     2.2059    -0.0000
  3 C      5.6702     6.0000     0.3298     4.1484     4.1484     0.0000
  4 C      6.3527     6.0000    -0.3527     3.8817     3.8817    -0.0000
  5 H      0.8370     1.0000     0.1630     0.9527     0.9527    -0.0000
  6 H      0.8376     1.0000     0.1624     0.9533     0.9533    -0.0000
  7 H      0.8335     1.0000     0.1665     0.9457     0.9457     0.0000
  8 O      8.3484     8.0000    -0.3484     2.1937     2.1937    -0.0000
  9 C      5.6700     6.0000     0.3300     4.0924     4.0924     0.0000
 10 O      8.3472     8.0000    -0.3472     2.2004     2.2004    -0.0000
 11 C      6.3298     6.0000    -0.3298     3.8955     3.8955    -0.0000
 12 H      0.8337     1.0000     0.1663     0.9538     0.9538     0.0000
 13 H      0.8328     1.0000     0.1672     0.9479     0.9479    -0.0000
 14 H      0.8354     1.0000     0.1646     0.9554     0.9554    -0.0000
 15 O      8.3469     8.0000    -0.3469     2.2015     2.2015    -0.0000
 16 Pd    17.5558    18.0000     0.4442     2.6362     2.6362    -0.0000
 17 O      8.3488     8.0000    -0.3488     2.1927     2.1927    -0.0000
 18 C      5.6700     6.0000     0.3300     4.0929     4.0929    -0.0000
 19 H      0.8354     1.0000     0.1646     0.9555     0.9555    -0.0000
 20 H      0.8330     1.0000     0.1670     0.9480     0.9480    -0.0000
 21 C      6.3299     6.0000    -0.3299     3.8953     3.8953    -0.0000
 22 H      0.8336     1.0000     0.1664     0.9537     0.9537    -0.0000
 23 O      8.3587     8.0000    -0.3587     2.2012     2.2012     0.0000
 24 C      5.6706     6.0000     0.3294     4.1489     4.1489    -0.0000
 25 O      8.3573     8.0000    -0.3573     2.2052     2.2052    -0.0000
 26 C      6.3515     6.0000    -0.3515     3.8821     3.8821    -0.0000
 27 H      0.8338     1.0000     0.1662     0.9458     0.9458     0.0000
 28 H      0.8371     1.0000     0.1629     0.9528     0.9528    -0.0000
 29 H      0.8377     1.0000     0.1623     0.9532     0.9532    -0.0000

  Mayer bond orders larger than 0.100000
B(  0-Pd,  1-O ) :   0.5248 B(  0-Pd,  8-O ) :   0.5866 B(  0-Pd, 10-O ) :   0.5864 
B(  0-Pd, 16-Pd) :   0.1677 B(  0-Pd, 25-O ) :   0.5249 B(  1-O ,  3-C ) :   1.4853 
B(  2-O ,  3-C ) :   1.4894 B(  2-O , 16-Pd) :   0.5252 B(  3-C ,  4-C ) :   1.0725 
B(  4-C ,  5-H ) :   0.9387 B(  4-C ,  6-H ) :   0.9398 B(  4-C ,  7-H ) :   0.9257 
B(  8-O ,  9-C ) :   1.4330 B(  9-C , 10-O ) :   1.4376 B(  9-C , 11-C ) :   1.1195 
B( 11-C , 12-H ) :   0.9287 B( 11-C , 13-H ) :   0.9204 B( 11-C , 14-H ) :   0.9308 
B( 15-O , 16-Pd) :   0.5846 B( 15-O , 18-C ) :   1.4402 B( 16-Pd, 17-O ) :   0.5874 
B( 16-Pd, 23-O ) :   0.5250 B( 17-O , 18-C ) :   1.4312 B( 18-C , 21-C ) :   1.1192 
B( 19-H , 21-C ) :   0.9310 B( 20-H , 21-C ) :   0.9205 B( 21-C , 22-H ) :   0.9286 
B( 23-O , 24-C ) :   1.4853 B( 24-C , 25-O ) :   1.4892 B( 24-C , 26-C ) :   1.0729 
B( 26-C , 27-H ) :   0.9256 B( 26-C , 28-H ) :   0.9388 B( 26-C , 29-H ) :   0.9396 


-------
TIMINGS
-------

Total SCF time: 0 days 0 hours 1 min 46 sec 

Total time                  ....     106.908 sec
Sum of individual times     ....     104.538 sec  ( 97.8%)

SCF preparation             ....       2.111 sec  (  2.0%)
Fock matrix formation       ....      71.840 sec  ( 67.2%)
  Startup                   ....       5.502 sec  (  7.7% of F)
  Split-RI-J                ....      13.137 sec  ( 18.3% of F)
  Chain of spheres X        ....      31.091 sec  ( 43.3% of F)
  XC integration            ....      14.326 sec  ( 19.9% of F)
    XC Preparation          ....       0.000 sec  (  0.0% of XC)
    Basis function eval.    ....       1.560 sec  ( 10.9% of XC)
    Density eval.           ....       0.808 sec  (  5.6% of XC)
    XC-Functional eval.     ....       0.260 sec  (  1.8% of XC)
    XC-Potential eval.      ....       0.740 sec  (  5.2% of XC)
Diagonalization             ....       0.000 sec  (  0.0%)
Density matrix formation    ....       9.258 sec  (  8.7%)
Total Energy calculation    ....       4.223 sec  (  4.0%)
Population analysis         ....       0.780 sec  (  0.7%)
Orbital Transformation      ....       0.581 sec  (  0.5%)
Orbital Orthonormalization  ....       0.000 sec  (  0.0%)
DIIS solution               ....      14.346 sec  ( 13.4%)
SOSCF solution              ....       1.399 sec  (  1.3%)
Finished LeanSCF after 107.3 sec

Maximum memory used throughout the entire LEANSCF-calculation: 35.5 MB


           ************************************************************
           *        Program running with 16 parallel MPI-processes    *
           *              working on a common directory               *
           ************************************************************

------------------------------------------------------------------------------
                         ORCA PROPERTY INTEGRAL CALCULATIONS
------------------------------------------------------------------------------

GBWName                                   ... CS_PdOAc_002_freq_01.gbw
Number of atoms                           ...     30
Number of basis functions                 ...    296
Max core memory                           ...   3500 MB

Dipole integrals                          ... YES
Quadrupole integrals                      ...  NO
Linear momentum integrals                 ...  NO
Angular momentum integrals                ...  NO
Higher moments length integrals           ...  NO
Higher moments velocity integrals         ...  NO
Kinetic energy integrals                  ...  NO
GIAO right hand sides                     ...  NO
GIAO dipole derivative integrals          ...  NO
SOC integrals                             ...  NO
EPR diamagnetic integrals (GIAO)          ...  NO
EPR gauge integrals                       ...  NO
Field gradient integrals                  ...  NO (   0 nuclei)
Spin-dipole/Fermi contact integrals       ...  NO (   0 nuclei)
Contact density integrals                 ...  NO (   0 nuclei)
Nucleus-orbit integrals                   ...  NO (   0 nuclei)
Geometric perturbations                   ... YES (  30 nuclei)

Choice of electric origin   ... Center of mass
Position of electric origin ... (  0.9372,  2.3310, -0.2014) 
Choice of magnetic origin   ... GIAO
Position of magnetic origin ... (  0.0000,  0.0000,  0.0000) 

Calculating integrals                     ... Electric Dipole (Length)     done (  0.1 sec)
Calculating integrals                     ... Geometrical perturbation right hand sides

Info: (SHARK/DRIVER/GeoPert/RHS): Found parallel group flag:
                                  Will try to set up 8 WorkingGroups with 2 workers belonging to each group
                                 group   4: will be working on atoms   16 to   19
                                 group   5: will be working on atoms   20 to   23
                                 group   6: will be working on atoms   24 to   27
                                 group   7: will be working on atoms   28 to   29

Info (SHARK/DRIVER/GeoPert/RHS): Found 8 parallel subgroups - adjusting work intervals:
                                 group   0: will be working on atoms    0 to    3
                                 Outputs of groups > 0 will be redirected to CS_PdOAc_002_freq_01.group*.propint.out

                                 group   1: will be working on atoms    4 to    7
                                 group   2: will be working on atoms    8 to   11
                                 group   3: will be working on atoms   12 to   15

-----------------------
GEOMETRIC PERTURBATIONS (30 nuclei)
-----------------------

MaxCore                            ...   3500 MB
Number of batches                  ...      1

Warning: could not find the gridfile in CPSCF-Calc-FXC
         ... constructing integration grid from scratch...
         ... finished setting up the grid
BATCH   0: Atoms    0 -    3 ( 12 perturbations)
   => H(core) and overlap derivative integrals     ... done (     0.1 sec)
   => Making and storing internal U-coefficients   ... done (     0.2 sec)
   => RI-J derivative integrals                    ... done (     6.0 sec)
   => RI-J response operators                      ... done (     2.2 sec)
   => Chain of spheres derivative integrals        ... done (    24.2 sec)
   => Chain of spheres response operator           ... done (    25.6 sec)
   => ECP derivative integrals                     ... done (    20.3 sec)
   => XC derivative integrals                      ... done (    33.8 sec)
   => XC response operators                        ... done (     6.5 sec)
   => Completing and storing right hand sides      ... done (     0.1 sec)
   => Total time for right hand sides = 123.8 sec

  geometrical perturbations done (124.5 sec)

Property integrals calculated in 124.6 sec

Maximum memory used throughout the entire PROPINT-calculation: 65.3 MB


-------------------------------------------------------------------------------
                          DFT DISPERSION CORRECTION                            
                                                                               
                              DFTD3 V3.1  Rev 1                                
                          USING Becke-Johnson damping                          
-------------------------------------------------------------------------------
The PBE0 functional is recognized
Active option DFTDOPT                   ...         4   

molecular C6(AA) [au] = 13175.718293 


            DFT-D V3
 parameters
 s6 scaling factor         :     1.0000 
 a1 scaling factor         :     0.4145 
 s8 scaling factor         :     1.2177 
 a2 scaling factor         :     4.8593 
 ad hoc parameters k1-k3   :    16.0000     1.3333    -4.0000 

 Edisp/kcal,au: -19.723443561054  -0.031431304661 
 E6   /kcal   : -11.510029403 
 E8   /kcal   :  -8.213414158 
 % E8         :  41.642901416 

-------------------------   ----------------
Dispersion correction           -0.031431305
-------------------------   ----------------


-------------------------   --------------------
FINAL SINGLE POINT ENERGY     -1168.103611028448
-------------------------   --------------------



           ************************************************************
           *        Program running with 16 parallel MPI-processes    *
           *              working on a common directory               *
           ************************************************************
------------------------------------------------------------------------------
                            ORCA SCF RESPONSE CALCULATION
------------------------------------------------------------------------------

GBWName                                 ... CS_PdOAc_002_freq_01.gbw
Number of atoms                         ...     30
Number of basis functions               ...    296
Max core memory                         ...   3500 MB

Electric field perturbation             ...  NO
Quadrupolar field perturbation          ...  NO
Magnetic field perturbation (no GIAO)   ...  NO
Magnetic field perturbation (with GIAO) ...  NO
Linear momentum (velocity) perturbation ...  NO
Spin-orbit coupling perturbation        ...  NO
Choice of electric origin               ... Center of mass
Position of electric origin             ...     0.937214     2.331042    -0.201412
Choice of magnetic origin               ... GIAO
Position of magnetic origin             ...     0.000000     0.000000     0.000000
Nuclear geometric perturbations         ... YES (  90 perturbations)
Nucleus-orbit perturbations             ...  NO (   0 perturbations)
Spin-dipole/Fermi contact perturbations ...  NO (   0 perturbations)

Total number of real perturbations      ...     90
Total number of imaginary perturbations ...      0
Total number of triplet perturbations   ...      0
Total number of SOC perturbations       ...      0


Info: (ORCA_SCFRESP): Found parallel group flag:
                      Will try to set up 8 WorkingGroups with 2 workers belonging to each group


Using XC Grid                  ... (CS_PdOAc_002_freq_01.group0.grid_cpscf.tmp) 
Recalculating density on grid  ... (CS_PdOAc_002_freq_01.group0.grho_cpscf0.tmp) done
Calculating the xc-kernel      ... (CS_PdOAc_002_freq_01.group0.fxc_cpscf0.tmp) done

                                **********************
                                * REAL PERTURBATIONS *
                                **********************



-------------------
SHARK CP-SCF DRIVER
-------------------

Dimension of the orbital basis          ...    296
Dimension of the CPSCF-problem          ...  17280
Number of operators                     ...      1
Max. number of iterations               ...    128
Max. DIIS space dimension               ...     20
Convergence Tolerance                   ... 1.0e-04
Number of perturbations                 ...     90
Perturbation type                       ... REAL

--------------------
DIIS EQUATION SOLVER
--------------------

  ITERATION   0:   ||err||_max =   3.9362e-01 (  17.9 sec   0/ 90 done)
  ITERATION   1:   ||err||_max =   4.7962e-01 (  18.1 sec   0/ 90 done)
  ITERATION   2:   ||err||_max =   2.3393e-02 (  18.1 sec   0/ 90 done)
  ITERATION   3:   ||err||_max =   1.1455e-02 (  22.6 sec   0/ 90 done)
  ITERATION   4:   ||err||_max =   6.3270e-03 (  22.2 sec   0/ 90 done)
  ITERATION   5:   ||err||_max =   3.3316e-03 (  19.9 sec   0/ 90 done)
  ITERATION   6:   ||err||_max =   2.0389e-03 (  21.0 sec  17/ 90 done)
[...]
 27:    267.01   0.002727   13.78  0.003187  ( 0.055007 -0.012484 -0.002334)
 28:    309.13   0.000011    0.06  0.000011  (-0.000044  0.001632 -0.002956)
 29:    320.53   0.000023    0.12  0.000023  ( 0.001316  0.003561  0.002879)
 30:    352.38   0.000002    0.01  0.000002  ( 0.000930  0.000703  0.000529)
 31:    369.30   0.006221   31.44  0.005257  (-0.070533  0.016765  0.001013)
 32:    380.03   0.003888   19.65  0.003192  ( 0.007580  0.033949 -0.044525)
 33:    412.19   0.020116  101.66  0.015230  ( 0.024010  0.094233  0.075985)
 34:    516.32   0.000003    0.01  0.000002  ( 0.000434  0.000883  0.000907)
 35:    519.35   0.000663    3.35  0.000398  ( 0.001446  0.012110 -0.015802)
 36:    603.06   0.000001    0.00  0.000001  ( 0.000527 -0.000268 -0.000397)
 37:    604.79   0.001461    7.38  0.000754  ( 0.026714 -0.006202 -0.001310)
 38:    610.26   0.000879    4.44  0.000449  (-0.021051  0.002318 -0.000974)
 39:    611.31   0.000326    1.65  0.000166  (-0.003077  0.010093  0.007417)
 40:    621.48   0.000305    1.54  0.000153  ( 0.000926  0.006887 -0.010235)
 41:    629.44   0.002786   14.08  0.001381  ( 0.007508  0.028408  0.022756)
 42:    716.79   0.007784   39.34  0.003389  (-0.006778 -0.036542  0.044806)
 43:    720.42   0.012233   61.82  0.005299  (-0.071745  0.012089 -0.002323)
 44:    720.85   0.009627   48.65  0.004167  (-0.005459 -0.050141 -0.040292)
 45:    725.96   0.033358  168.58  0.014339  ( 0.023466  0.091023  0.074186)
 46:    991.39   0.002288   11.56  0.000720  ( 0.026195 -0.005539 -0.001841)
 47:    991.58   0.006451   32.60  0.002030  ( 0.009007  0.034317  0.027777)
 48:    993.44   0.000057    0.29  0.000018  (-0.000890 -0.003318  0.002464)
 49:    999.11   0.001611    8.14  0.000503  (-0.004351 -0.017104 -0.013843)
 50:   1013.75   0.000001    0.00  0.000000  (-0.000037 -0.000065 -0.000409)
 51:   1014.07   0.001563    7.90  0.000481  (-0.001768 -0.013624  0.017097)
 52:   1044.58   0.000101    0.51  0.000030  (-0.005236  0.001393  0.000870)
 53:   1044.77   0.000597    3.01  0.000178  (-0.013077  0.002510  0.000937)
 54:   1065.54   0.000561    2.83  0.000164  ( 0.000872  0.008081 -0.009904)
 55:   1066.68   0.003015   15.23  0.000882  ( 0.029037 -0.006108 -0.001226)
 56:   1067.53   0.004062   20.53  0.001187  ( 0.006927  0.026229  0.021248)
 57:   1068.86   0.001532    7.74  0.000447  ( 0.003905  0.016165  0.013064)
 58:   1372.69   0.000968    4.89  0.000220  ( 0.014489 -0.001417 -0.002843)
 59:   1375.02   0.000027    0.14  0.000006  ( 0.000800  0.002348 -0.000178)
 60:   1375.11   0.000764    3.86  0.000173  ( 0.002654  0.007314 -0.010621)
 61:   1376.97   0.000209    1.06  0.000047  (-0.001029 -0.005447 -0.004085)
 62:   1433.78   0.000166    0.84  0.000036  ( 0.001279  0.003704  0.004551)
 63:   1438.07   0.016660   84.19  0.003615  ( 0.004323  0.036674 -0.047452)
 64:   1444.45   0.000115    0.58  0.000025  (-0.003753 -0.001377 -0.002963)
 65:   1446.09   0.011817   59.72  0.002550  (-0.048890  0.012614 -0.000854)
 66:   1453.08   0.002296   11.60  0.000493  ( 0.020509 -0.008268 -0.002040)
 67:   1454.20   0.004272   21.59  0.000917  ( 0.008481  0.022398  0.018524)
 68:   1458.06   0.000827    4.18  0.000177  ( 0.003647  0.009359 -0.008729)
 69:   1459.29   0.012976   65.57  0.002775  (-0.010206 -0.039900 -0.032843)
 70:   1508.17   0.058653  296.41  0.012136  (-0.014203 -0.066835  0.086415)
 71:   1515.63   0.064792  327.43  0.013340  ( 0.022590  0.087798  0.071565)
 72:   1565.87   0.041108  207.75  0.008193  (-0.088486  0.017658  0.007144)
 73:   1575.30   0.120380  608.35  0.023847  (-0.030387 -0.119154 -0.093413)
 74:   1588.79   0.001981   10.01  0.000389  (-0.005759 -0.015296 -0.011041)
 75:   1597.41   0.054063  273.21  0.010562  ( 0.005972  0.060719 -0.082699)
 76:   1640.63   0.000010    0.05  0.000002  ( 0.000592  0.000876  0.000903)
 77:   1715.76   0.197850  999.85  0.035985  ( 0.184686 -0.042795 -0.006672)
 78:   3059.21   0.000054    0.27  0.000005  ( 0.001869  0.000990  0.001010)
 79:   3059.58   0.000101    0.51  0.000010  ( 0.002777 -0.001415 -0.000768)
 80:   3063.61   0.000131    0.66  0.000013  (-0.000410 -0.001304 -0.003381)
 81:   3064.12   0.000140    0.71  0.000014  (-0.000763 -0.003657 -0.000574)
 82:   3154.63   0.000008    0.04  0.000001  (-0.000794 -0.000330 -0.000270)
 83:   3155.01   0.000038    0.19  0.000004  (-0.001854  0.000469  0.000317)
 84:   3160.27   0.000273    1.38  0.000027  ( 0.000239  0.001902 -0.004829)
 85:   3160.42   0.000229    1.16  0.000023  ( 0.000839  0.003931 -0.002534)
 86:   3189.86   0.000007    0.04  0.000001  ( 0.000458  0.000666 -0.000254)
 87:   3190.11   0.000007    0.04  0.000001  ( 0.000347  0.000064 -0.000757)
 88:   3195.50   0.000121    0.61  0.000012  ( 0.003264 -0.000850 -0.000667)
 89:   3195.95   0.000130    0.65  0.000013  ( 0.003517 -0.000499 -0.000183)

* The epsilon (eps) is given for a Dirac delta lineshape.
** The dipole moment derivative (T) already includes vibrational overlap.

The first frequency considered to be a vibration is 6
The total number of vibrations considered is 84


--------------------------
THERMOCHEMISTRY AT 298.15K
--------------------------

Temperature         ...   298.15 K
Pressure            ...     1.00 atm
Total Mass          ...   448.98 AMU
Quasi RRHO          ...     True
Cut-Off Frequency   ...     1.00 cm^-1

Throughout the following assumptions are being made:
  (1) The electronic state is orbitally nondegenerate
  (2) There are no thermally accessible electronically excited states
  (3) Hindered rotations indicated by low frequency modes are not
      treated as such but are treated as vibrations and this may
      cause some error
  (4) All equations used are the standard statistical mechanics
      equations for an ideal gas
  (5) All vibrations are strictly harmonic

freq.       7.55  E(vib)   ...       0.58 
freq.      24.43  E(vib)   ...       0.56 
freq.      30.16  E(vib)   ...       0.55 
freq.      31.29  E(vib)   ...       0.55 
freq.      34.41  E(vib)   ...       0.54 
freq.      36.72  E(vib)   ...       0.54 
freq.      44.68  E(vib)   ...       0.53 
freq.      62.00  E(vib)   ...       0.51 
freq.      68.81  E(vib)   ...       0.50 
freq.      80.97  E(vib)   ...       0.48 
freq.     104.64  E(vib)   ...       0.46 
freq.     122.54  E(vib)   ...       0.43 
freq.     126.46  E(vib)   ...       0.43 
freq.     134.75  E(vib)   ...       0.42 
freq.     166.87  E(vib)   ...       0.39 
freq.     177.24  E(vib)   ...       0.37 
freq.     196.96  E(vib)   ...       0.35 
freq.     202.74  E(vib)   ...       0.35 
freq.     218.25  E(vib)   ...       0.33 
freq.     232.54  E(vib)   ...       0.32 
freq.     253.82  E(vib)   ...       0.30 
freq.     267.01  E(vib)   ...       0.29 
freq.     309.13  E(vib)   ...       0.26 
freq.     320.53  E(vib)   ...       0.25 
freq.     352.38  E(vib)   ...       0.23 
freq.     369.30  E(vib)   ...       0.21 
freq.     380.03  E(vib)   ...       0.21 
freq.     412.19  E(vib)   ...       0.19 
freq.     516.32  E(vib)   ...       0.13 
freq.     519.35  E(vib)   ...       0.13 
freq.     603.06  E(vib)   ...       0.10 
freq.     604.79  E(vib)   ...       0.10 
freq.     610.26  E(vib)   ...       0.10 
freq.     611.31  E(vib)   ...       0.10 
freq.     621.48  E(vib)   ...       0.09 
freq.     629.44  E(vib)   ...       0.09 
freq.     716.79  E(vib)   ...       0.07 
freq.     720.42  E(vib)   ...       0.07 
freq.     720.85  E(vib)   ...       0.07 
freq.     725.96  E(vib)   ...       0.06 
freq.     991.39  E(vib)   ...       0.02 
freq.     991.58  E(vib)   ...       0.02 
freq.     993.44  E(vib)   ...       0.02 
freq.     999.11  E(vib)   ...       0.02 
freq.    1013.75  E(vib)   ...       0.02 
freq.    1014.07  E(vib)   ...       0.02 
freq.    1044.58  E(vib)   ...       0.02 
freq.    1044.77  E(vib)   ...       0.02 
freq.    1065.54  E(vib)   ...       0.02 
freq.    1066.68  E(vib)   ...       0.02 
freq.    1067.53  E(vib)   ...       0.02 
freq.    1068.86  E(vib)   ...       0.02 
freq.    1372.69  E(vib)   ...       0.01 
freq.    1375.02  E(vib)   ...       0.01 
freq.    1375.11  E(vib)   ...       0.01 
freq.    1376.97  E(vib)   ...       0.01 
freq.    1433.78  E(vib)   ...       0.00 
freq.    1438.07  E(vib)   ...       0.00 
freq.    1444.45  E(vib)   ...       0.00 
freq.    1446.09  E(vib)   ...       0.00 
freq.    1453.08  E(vib)   ...       0.00 
freq.    1454.20  E(vib)   ...       0.00 
freq.    1458.06  E(vib)   ...       0.00 
freq.    1459.29  E(vib)   ...       0.00 
freq.    1508.17  E(vib)   ...       0.00 
freq.    1515.63  E(vib)   ...       0.00 
freq.    1565.87  E(vib)   ...       0.00 
freq.    1575.30  E(vib)   ...       0.00 
freq.    1588.79  E(vib)   ...       0.00 
freq.    1597.41  E(vib)   ...       0.00 
freq.    1640.63  E(vib)   ...       0.00 
freq.    1715.76  E(vib)   ...       0.00 
freq.    3059.21  E(vib)   ...       0.00 
freq.    3059.58  E(vib)   ...       0.00 
freq.    3063.61  E(vib)   ...       0.00 
freq.    3064.12  E(vib)   ...       0.00 
freq.    3154.63  E(vib)   ...       0.00 
freq.    3155.01  E(vib)   ...       0.00 
freq.    3160.27  E(vib)   ...       0.00 
freq.    3160.42  E(vib)   ...       0.00 
freq.    3189.86  E(vib)   ...       0.00 
freq.    3190.11  E(vib)   ...       0.00 
freq.    3195.50  E(vib)   ...       0.00 
freq.    3195.95  E(vib)   ...       0.00 

------------
INNER ENERGY
------------

The inner energy is: U= E(el) + E(ZPE) + E(vib) + E(rot) + E(trans)
    E(el)   - is the total energy from the electronic structure calculation
              = E(kin-el) + E(nuc-el) + E(el-el) + E(nuc-nuc)
    E(ZPE)  - the the zero temperature vibrational energy from the frequency calculation
    E(vib)  - the the finite temperature correction to E(ZPE) due to population
              of excited vibrational states
    E(rot)  - is the rotational thermal energy
    E(trans)- is the translational thermal energy

Summary of contributions to the inner energy U:
Electronic energy                ...  -1168.10361103 Eh
Zero point energy                ...      0.20998409 Eh     131.77 kcal/mol
Thermal vibrational correction   ...      0.02001313 Eh      12.56 kcal/mol
Thermal rotational correction    ...      0.00141627 Eh       0.89 kcal/mol
Thermal translational correction ...      0.00141627 Eh       0.89 kcal/mol
-----------------------------------------------------------------------
Total thermal energy                  -1167.87078126 Eh


Summary of corrections to the electronic energy:
(perhaps to be used in another calculation)
Total thermal correction                  0.02284568 Eh      14.34 kcal/mol
Non-thermal (ZPE) correction              0.20998409 Eh     131.77 kcal/mol
-----------------------------------------------------------------------
Total correction                          0.23282977 Eh     146.10 kcal/mol


--------
ENTHALPY
--------

The enthalpy is H = U + kB*T
                kB is Boltzmann's constant
Total thermal energy              ...  -1167.87078126 Eh 
Thermal Enthalpy correction       ...      0.00094421 Eh       0.59 kcal/mol
-----------------------------------------------------------------------
Total Enthalpy                    ...  -1167.86983705 Eh


Note: Only C1 symmetry has been detected, increase convergence thresholds 
      if your molecule has a higher symmetry. Symmetry factor of 1.0 is   
      used for the rotational entropy correction. 
 

Note: Rotational entropy computed according to Herzberg 
Infrared and Raman Spectra, Chapter V,1, Van Nostrand Reinhold, 1945 
Point Group:  C1, Symmetry Number:   1  
Rotational constants in cm-1:     0.010011     0.009691     0.007268 

Vibrational entropy computed according to the QRRHO of S. Grimme
Chem.Eur.J. 2012 18 9955 using a reference frequency of 100.0 cm-1


-------
ENTROPY
-------

The entropy contributions are T*S = T*(S(el)+S(vib)+S(rot)+S(trans))
     S(el)   - electronic entropy
     S(vib)  - vibrational entropy
     S(rot)  - rotational entropy
     S(trans)- translational entropy
The entropies will be listed as multiplied by the temperature to get
units of energy

Electronic entropy                ...      0.00000000 Eh      0.00 kcal/mol
Vibrational entropy               ...      0.03827211 Eh     24.02 kcal/mol
Rotational entropy                ...      0.01619796 Eh     10.16 kcal/mol
Translational entropy             ...      0.02099820 Eh     13.18 kcal/mol
-----------------------------------------------------------------------
Final entropy term                ...      0.07546826 Eh     47.36 kcal/mol

In case the symmetry of your molecule has not been determined correctly
or in case you have a reason to use a different symmetry number we print 
out the resulting rotational entropy values for sn=1,12:

 non-linear molecules -----------------------------------
|  sn= 1 | S(rot)=       0.01619796 Eh     10.16 kcal/mol|
|  sn= 2 | S(rot)=       0.01554350 Eh      9.75 kcal/mol|
|  sn= 3 | S(rot)=       0.01516067 Eh      9.51 kcal/mol|
|  sn= 4 | S(rot)=       0.01488905 Eh      9.34 kcal/mol|
|  sn= 5 | S(rot)=       0.01467836 Eh      9.21 kcal/mol|
|  sn= 6 | S(rot)=       0.01450621 Eh      9.10 kcal/mol|
|  sn= 7 | S(rot)=       0.01436067 Eh      9.01 kcal/mol|
|  sn= 8 | S(rot)=       0.01423459 Eh      8.93 kcal/mol|
|  sn= 9 | S(rot)=       0.01412338 Eh      8.86 kcal/mol|
|  sn=10 | S(rot)=       0.01402390 Eh      8.80 kcal/mol|
|  sn=11 | S(rot)=       0.01393391 Eh      8.74 kcal/mol|
|  sn=12 | S(rot)=       0.01385176 Eh      8.69 kcal/mol|
 linear molecules ---------------------------------------
|  Dinfh | S(rot)=       0.00997526 Eh      6.26 kcal/mol|
|  Cinfv | S(rot)=       0.01062972 Eh      6.67 kcal/mol|
 --------------------------------------------------------


-------------------
GIBBS FREE ENERGY
-------------------

The Gibbs free energy is G = H - T*S

Total enthalpy                    ...  -1167.86983705 Eh 
Total entropy correction          ...     -0.07546826 Eh    -47.36 kcal/mol
-----------------------------------------------------------------------
Final Gibbs free energy         ...  -1167.94530532 Eh

For completeness - the Gibbs free energy minus the electronic energy
G-E(el)                           ...      0.15830571 Eh     99.34 kcal/mol


Maximum memory used throughout the entire PROP-calculation: 147.1 MB

--------------------------------
SUGGESTED CITATIONS FOR THIS RUN
--------------------------------

Below you find a list of papers that are relevant to this ORCA run
We neither can nor want to force you to cite these papers, but we appreciate if you do
You receive ORCA, which is the product of decades of hard work by many enthusiastic individuals, for free
The only thing we kindly ask in return is that you cite our papers,
We deeply appreciate it, if you show your appreciation for ORCA by not just citing the generic ORCA reference.

Please note that relegating all ORCA citations to the supporting information does *not* help us.
SI sections are not indexed - citations you put there will not count into any citation statistics
But we need these citations in order to attract the funding resources that allow us to do what we are doing

Therefore, if you are a happy ORCA user, please consider citing a few of the papers listed below in the main body of your paper

In addition to the list printed below, the program has created the file CS_PdOAc_002_freq_01.bibtex that contains the list in bibtex format
You can import this file easily into all common literature databanks and citation aid programs


List of essential papers. We consider these as the minimum necessary citations

  1. Neese,F.
     Software update: the ORCA program system, version 5.0
     WIRES Comput. Molec. Sci., 2022 12(1)e1606
     doi.org/10.1002/wcms.1606

List of papers to cite with high priority. The work reported in these papers was absolutely
necessary for this run to complete.
Our perspective: the developers of density functionals and basis sets usually get cited in chemistry papers
Good! But without the algorithms to do something with them, the functionals or basis sets would not do anything.
Hence, in our opinion, the algorithm design and method developments papers are equally worthy of getting cited

  1. Neese,F.
     An improvement of the resolution of the identity approximation for the formation of the Coulomb matrix
     J. Comp. Chem., 2003 24(14)1740-1747
     doi.org/10.1002/jcc.10318
  2. Neese,F.; Wennmohs,F.; Hansen,A.; Becker,U.
     Efficient, approximate and parallel Hartree-Fock and hybrid DFT calculations. A 'chain-of-spheres' algorithm for the Hartree-Fock exchange
     Chem. Phys., 2009 356(1-3)98-109
     doi.org/10.1016/j.chemphys.2008.10.036
  3. Bykov,D.; Petrenko,T.; Izsak,R.; Kossmann,S.; Becker,U.; Valeev,E.; Neese,F.
     Efficient implementation of the analytic second derivatives of Hartree-Fock and hybrid DFT energies: a detailed analysis of different approximations
     Molec. Phys., 2015 113 1961-1977
     doi.org/10.1080/00268976.2015.1025114
  4. Helmich-Paris,B.; de Souza,B.; Neese,F.; Izsák,R.
     An improved chain of spheres for exchange algorithm
     J. Chem. Phys., 2021 155 104109
     doi.org/doi: 10.1063/5.0058766.
  5. Neese,F.
     The SHARK Integral Generation and Digestion System
     J. Comp. Chem., 2022  1-16
     doi.org/10.1002/jcc.26942
  6. Grimme,S.; Antony,J.; Ehrlich,S.; Krieg,H.
     A consistent and accurate ab initio parametrization of density functional dispersion correction (DFT-D) for the 94 elements H-Pu
     J. Chem. Phys., 2010 132 154104-XXXX
     doi.org/10.1063/1.3382344
  7. Grimme,S.; Ehrlich,S.; Goerigk,L.
     Effect of the damping function in dispersion corrected density functional theory
     J. Comput. Chem., 2011 32(7)1456-1465
     doi.org/10.1002/jcc.21759

List of suggested additional citations. These are papers that are important in the 'surrounding' of 
of this run, or papers that preceded the highly important papers. If you like your results we are grateful for a citation.

  1. Izsak,R.; Neese,F.
     An overlap fitted chain of spheres exchange method
     J. Chem. Phys., 2011 135 144105
     doi.org/10.1063/1.3646921
  2. Izsak,R.; Hansen,A.; Neese,F.
     The resolution of identity and chain of spheres approximations for the LPNO-CCSD singles Fock term
     Molec. Phys., 2012 110 2413-2417
     doi.org/10.1080/00268976.2012.687466
  3. Neese,F.
     The ORCA program system
     WIRES Comput. Molec. Sci., 2012 2(1)73-78
     doi.org/10.1002/wcms.81
  4. Izsak,R.; Neese,F.; Klopper,W.
     Robust fitting techniques in the chain of spheres approximation to the Fock exchange: The role of the complementary space
     J. Chem. Phys., 2013 139 
     doi.org/10.1063/1.4819264
  5. Neese,F.
     Software update: the ORCA program system, version 4.0
     WIRES Comput. Molec. Sci., 2018 8(1)1-6
     doi.org/10.1002/wcms.1327
  6. Neese,F.; Wennmohs,F.; Becker,U.; Riplinger,C.
     The ORCA quantum chemistry program package
     J. Chem. Phys., 2020 152 Art. No. L224108
     doi.org/10.1063/5.0004608

List of optional additional citations

  1. Neese,F.
     Approximate second-order SCF convergence for spin unrestricted wavefunctions
     Chem. Phys. Lett., 2000 325(1-3)93-98
     doi.org/10.1016/s0009-2614(00)00662-x

Timings for individual modules:

Sum of individual times          ...      668.581 sec (=  11.143 min)
Startup calculation              ...        7.347 sec (=   0.122 min)   1.1 %
SCF iterations                   ...      123.849 sec (=   2.064 min)  18.5 %
Property integrals               ...      126.649 sec (=   2.111 min)  18.9 %
SCF Response                     ...      236.927 sec (=   3.949 min)  35.4 %
Property calculations            ...      173.809 sec (=   2.897 min)  26.0 %
                             ****ORCA TERMINATED NORMALLY****
TOTAL RUN TIME: 0 days 0 hours 11 minutes 12 seconds 621 msec
