
                                 *****************
                                 * O   R   C   A *
                                 *****************

                                            #,                                       
                                            ###                                      
                                            ####                                     
                                            #####                                    
                                            ######                                   
                                           ########,                                 
                                     ,,################,,,,,                         
                               ,,#################################,,                 
                          ,,##########################################,,             
                       ,#########################################, ''#####,          
                    ,#############################################,,   '####,        
                  ,##################################################,,,,####,       
                ,###########''''           ''''###############################       
              ,#####''   ,,,,##########,,,,          '''####'''          '####       
            ,##' ,,,,###########################,,,                        '##       
           ' ,,###''''                  '''############,,,                           
         ,,##''                                '''############,,,,        ,,,,,,###''
      ,#''                                            '''#######################'''  
     '                                                          ''''####''''         
             ,#######,   #######,   ,#######,      ##                                
            ,#'     '#,  ##    ##  ,#'     '#,    #''#        ,####,   ,####,        
            ##       ##  ##   ,#'  ##            #'  '#       #'       #'  '#        
            ##       ##  #######   ##           ,######,      #####,   #    #        
            '#,     ,#'  ##    ##  '#,     ,#' ,#      #,     #,   #   #,  ,#        
             '#######'   ##     ##  '#######'  #'      '#     '####' # '####'        



                #########################################################
                #                        -***-                          #
                #          Department of theory and spectroscopy        #
                #                                                       #
                #                      Frank Neese                      #
                #                                                       #
                #     Directorship, Architecture, Infrastructure        #
                #                    SHARK, DRIVERS                     #
                #        Core code/Algorithms in most modules           #
                #                                                       #
                #        Max Planck Institute fuer Kohlenforschung      #
                #                Kaiser Wilhelm Platz 1                 #
                #                 D-45470 Muelheim/Ruhr                 #
                #                      Germany                          #
                #                                                       #
                #                  All rights reserved                  #
                #                        -***-                          #
                #########################################################


                         Program Version 6.0.0  -   RELEASE  -


 With contributions from (in alphabetic order):
   Daniel Aravena         : Magnetic Suceptibility
   Michael Atanasov       : Ab Initio Ligand Field Theory (pilot matlab implementation)
   Alexander A. Auer      : GIAO ZORA, VPT2 properties, NMR spectrum
   Ute Becker             : All parallelization in ORCA, NUMFREQ, NUMCALC
   Giovanni Bistoni       : ED, misc. LED, open-shell LED, HFLD
   Martin Brehm           : Molecular dynamics
   Dmytro Bykov           : pre 5.0 version of the SCF Hessian
   Marcos Casanova-Páez   : Triplet and SCS-CIS(D). UHF-(DLPNO)-IP/EA/STEOM-CCSD. UHF-CVS-IP/STEOM-CCSD
   Vijay G. Chilkuri      : MRCI spin determinant printing, contributions to CSF-ICE
   Pauline Colinet        : FMM embedding
   Dipayan Datta          : RHF DLPNO-CCSD density
   Achintya Kumar Dutta   : EOM-CC, STEOM-CC
   Nicolas Foglia         : Exact transition moments, OPA infrastructure, MCD improvements
   Dmitry Ganyushin       : Spin-Orbit,Spin-Spin,Magnetic field MRCI
   Miquel Garcia          : C-PCM and meta-GGA Hessian, CCSD/C-PCM, Gaussian charge scheme
   Tiago L. C. Gouveia    : GS-ROHF, GS-ROCIS
   Yang Guo               : DLPNO-NEVPT2, F12-NEVPT2, CIM, IAO-localization
   Andreas Hansen         : Spin unrestricted coupled pair/coupled cluster methods
   Ingolf Harden          : AUTO-CI MPn and infrastructure 
   Benjamin Helmich-Paris : MC-RPA, TRAH-(SCF,CASSCF), AVAS, COSX integrals, SCF dyn. polar.
   Lee Huntington         : MR-EOM, pCC
   Robert Izsak           : Overlap fitted RIJCOSX, COSX-SCS-MP3, EOM
   Riya Kayal             : Wick's Theorem for AUTO-CI, AUTO-CI UHF-CCSDT
   Emily Kempfer          : AUTO-CI, RHF CISDT and CCSDT
   Christian Kollmar      : KDIIS, OOCD, Brueckner-CCSD(T), CCSD density, CASPT2, CASPT2-K, improved NEVPT2
   Axel Koslowski         : Symmetry handling
   Simone Kossmann        : Meta GGA functionals, TD-DFT gradient, OOMP2, (MP2 Hessian; deprecated post 5.0)
   Lucas Lang             : DCDCAS
   Marvin Lechner         : AUTO-CI (C++ implementation), FIC-MRCC
   Spencer Leger          : CASSCF response
   Dagmar Lenk            : GEPOL surface, SMD, ORCA-2-JSON
   Dimitrios Liakos       : Extrapolation schemes; Compound Job, initial MDCI parallelization
   Dimitrios Manganas     : Further ROCIS development; embedding schemes. LFT, Crystal Embedding
   Dimitrios Pantazis     : SARC Basis sets
   Anastasios Papadopoulos: AUTO-CI, single reference methods and gradients
   Taras Petrenko         : pre 6.0 DFT Hessian and TD-DFT gradient, (ASA, deprecated), ECA, 1-Electron XAS/XES, NRVS
   Peter Pinski           : DLPNO-MP2, DLPNO-MP2 Gradient
   Christoph Reimann      : Effective Core Potentials
   Marius Retegan         : Local ZFS, SOC
   Christoph Riplinger    : Optimizer, TS searches, QM/MM, DLPNO-CCSD(T), (RO)-DLPNO pert. Triples
   Michael Roemelt        : Original ROCIS implementation
   Masaaki Saitow         : Open-shell DLPNO-CCSD energy and density
   Barbara Sandhoefer     : DKH picture change effects
   Kantharuban Sivalingam : CASSCF convergence/infrastructure, NEVPT2 and variants, FIC-MRCI
   Bernardo de Souza      : ESD, SOC TD-DFT
   Georgi Stoychev        : AutoAux, RI-MP2 NMR, DLPNO-MP2 response, X2C
   Van Anh Tran           : RI-MP2 g-tensors
   Willem Van den Heuvel  : Paramagnetic NMR
   Zikuan Wang            : NOTCH, Electric field optimization 
   Frank Wennmohs         : Technical directorship and infrastructure
   Hang Xu                : AUTO-CI-Response properties 


 We gratefully acknowledge several colleagues who have allowed us to
 interface, adapt or use parts of their codes:
   Stefan Grimme, W. Hujo, H. Kruse, P. Pracht,  : VdW corrections, initial TS optimization,
                  C. Bannwarth, S. Ehlert,         DFT functionals, gCP, sTDA/sTD-DF
                  L. Wittmann, M. Mueller
   Ed Valeev, F. Pavosevic, A. Kumar             : LibInt (2-el integral package), F12 methods
   Garnet Chan, S. Sharma, J. Yang, R. Olivares  : DMRG
   Ulf Ekstrom                                   : XCFun DFT Library
   Mihaly Kallay                                 : mrcc  (arbitrary order and MRCC methods)
   Frank Weinhold                                : gennbo (NPA and NBO analysis)
   Simon Mueller                                 : openCOSMO-RS
   Christopher J. Cramer and Donald G. Truhlar   : smd solvation model
   Lars Goerigk                                  : TD-DFT with DH, B97 family of functionals
   V. Asgeirsson, H. Jonsson                     : NEB implementation
   FAccTs GmbH                                   : IRC, NEB, NEB-TS, DLPNO-Multilevel, CI-OPT
                                                   MM, QMMM, 2- and 3-layer-ONIOM, Crystal-QMMM,
                                                   LR-CPCM, SF, NACMEs, symmetry and pop. for TD-DFT,
                                                   nearIR, NL-DFT gradient (VV10), updates on ESD,
                                                   ML-optimized integration grids, MBIS, APM,
                                                   GOAT, DOCKER, SOLVATOR, interface openCOSMO-RS
   S Lehtola, MJT Oliveira, MAL Marques          : LibXC Library
   Liviu Ungur et al                             : ANISO software


 Your calculation uses the libint2 library for the computation of 2-el integrals
 For citations please refer to: http://libint.valeyev.net

 Your ORCA version has been built with support for libXC version: 6.2.2
 For citations please refer to: https://libxc.gitlab.io

 This ORCA versions uses:
   CBLAS   interface :  Fast vector & matrix operations
   LAPACKE interface :  Fast linear algebra routines
   SCALAPACK package :  Parallel linear algebra routines
   Shared memory     :  Shared parallel matrices
   BLAS/LAPACK       :  OpenBLAS 0.3.27  USE64BITINT DYNAMIC_ARCH NO_AFFINITY Sandybridge SINGLE_THREADED
        Core in use  :  Sandybridge
   Copyright (c) 2011-2014, The OpenBLAS Project


NOTE: MaxCore=3500 MB was set to SCF,MP2,MDCI,CIPSI,MRCI and CIS
      => If you want to overwrite this, your respective input block should be placed after the MaxCore statement
Your calculation utilizes the atom-pairwise dispersion correction
with the Becke-Johnson damping scheme (D3BJ)


Warning: RI is on but no J-basis has been assigned. Assigning Def2/J (nothing to worry about!)
================================================================================

----- Orbital basis set information -----
Your calculation utilizes the basis: def2-TZVP
   F. Weigend and R. Ahlrichs, Phys. Chem. Chem. Phys. 7, 3297 (2005).

----- AuxJ basis set information -----
Your calculation utilizes the auxiliary basis: def2/J
   F. Weigend, Phys. Chem. Chem. Phys. 8, 1057 (2006).

================================================================================
                                        WARNINGS
                       Please study these warnings very carefully!
================================================================================

Using LibXC functional ID 497 : Re-regularized SCAN exchange by Furness et al
[ 1]  J. W. Furness, A. D. Kaplan, J. Ning, J. P. Perdew, and J. Sun.,  J. Phys. Chem. Lett. 11, 8208-8215 (2020)
[ 2]  J. W. Furness, A. D. Kaplan, J. Ning, J. P. Perdew, and J. Sun.,  J. Phys. Chem. Lett. 11, 9248-9248 (2020)
Using LibXC functional ID 498 : Re-regularized SCAN correlation by Furness et al
[ 1]  J. W. Furness, A. D. Kaplan, J. Ning, J. P. Perdew, and J. Sun.,  J. Phys. Chem. Lett. 11, 8208-8215 (2020)
[ 2]  J. W. Furness, A. D. Kaplan, J. Ning, J. P. Perdew, and J. Sun.,  J. Phys. Chem. Lett. 11, 9248-9248 (2020)
Using LibXC functional ID 497 : Re-regularized SCAN exchange by Furness et al
[ 1]  J. W. Furness, A. D. Kaplan, J. Ning, J. P. Perdew, and J. Sun.,  J. Phys. Chem. Lett. 11, 8208-8215 (2020)
[ 2]  J. W. Furness, A. D. Kaplan, J. Ning, J. P. Perdew, and J. Sun.,  J. Phys. Chem. Lett. 11, 9248-9248 (2020)
Using LibXC functional ID 498 : Re-regularized SCAN correlation by Furness et al
[ 1]  J. W. Furness, A. D. Kaplan, J. Ning, J. P. Perdew, and J. Sun.,  J. Phys. Chem. Lett. 11, 8208-8215 (2020)
[ 2]  J. W. Furness, A. D. Kaplan, J. Ning, J. P. Perdew, and J. Sun.,  J. Phys. Chem. Lett. 11, 9248-9248 (2020)

================================================================================
                                       INPUT FILE
================================================================================
NAME = CS_PdOAc_010_sp_02.inp
|  1> !r2SCANh def2-TZVP d3 TightSCF SlowConv RIJCOSX defgrid2
|  2> 
|  3> %pal
|  4> nprocs 4
|  5> end
|  6> 
|  7> %scf
|  8> MaxIter 1500
|  9> end
| 10> 
| 11> %maxcore 3500
| 12> 
| 13>  
| 14> 
| 15> * xyz 0 1
| 16>   O           0.00022945393406     -0.31300099561065     -0.53165302648926
| 17>   C          -1.12714279750530     -0.76227707252610      0.07958516999907
| 18>   O          -2.21060860168616     -0.28259429224135     -0.09602707607288
| 19>   C          -0.80193349509532     -1.91629277848566      0.97930931412647
| 20>   H          -0.33747088164425     -2.72879620345494      0.39569919685846
| 21>   H          -0.06870158135400     -1.60274631806362      1.74133143466650
| 22>   H          -1.71969982718559     -2.27584634386799      1.46388745359979
| 23>   C          -0.10046244432862      0.74418283549747     -1.39379501186392
| 24>   H          -1.11577961958336      1.13371131171588     -1.51202627486007
| 25>   C           0.97642010734584      1.22159272343404     -2.01191491942361
| 26>   H           1.96792442155445      0.78629382831538     -1.85036187396633
| 27>   H           0.87446090954824      2.06699611628755     -2.69719060557422
| 28> *
| 29> 
| 30>                          ****END OF INPUT****
================================================================================

                       ****************************
                       * Single Point Calculation *
                       ****************************

---------------------------------
CARTESIAN COORDINATES (ANGSTROEM)
---------------------------------
  O      0.000229   -0.313001   -0.531653
  C     -1.127143   -0.762277    0.079585
  O     -2.210609   -0.282594   -0.096027
  C     -0.801933   -1.916293    0.979309
  H     -0.337471   -2.728796    0.395699
  H     -0.068702   -1.602746    1.741331
  H     -1.719700   -2.275846    1.463887
  C     -0.100462    0.744183   -1.393795
  H     -1.115780    1.133711   -1.512026
  C      0.976420    1.221593   -2.011915
  H      1.967924    0.786294   -1.850362
  H      0.874461    2.066996   -2.697191

----------------------------
CARTESIAN COORDINATES (A.U.)
----------------------------
  NO LB      ZA    FRAG     MASS         X           Y           Z
   0 O     8.0000    0    15.999    0.000434   -0.591486   -1.004679
   1 C     6.0000    0    12.011   -2.129991   -1.440495    0.150394
   2 O     8.0000    0    15.999   -4.177445   -0.534026   -0.181465
   3 C     6.0000    0    12.011   -1.515435   -3.621269    1.850626
   4 H     1.0000    0     1.008   -0.637728   -5.156677    0.747763
   5 H     1.0000    0     1.008   -0.129827   -3.028752    3.290640
   6 H     1.0000    0     1.008   -3.249762   -4.300726    2.766346
   7 C     6.0000    0    12.011   -0.189847    1.406302   -2.633891
   8 H     1.0000    0     1.008   -2.108518    2.142404   -2.857316
   9 C     6.0000    0    12.011    1.845167    2.308476   -3.801968
  10 H     1.0000    0     1.008    3.718838    1.485880   -3.496677
  11 H     1.0000    0     1.008    1.652492    3.906057   -5.096952

--------------------------------
INTERNAL COORDINATES (ANGSTROEM)
--------------------------------
 O      0   0   0     0.000000000000     0.00000000     0.00000000
 C      1   0   0     1.358833808621     0.00000000     0.00000000
 O      2   1   0     1.197845307000   123.51036859     0.00000000
 C      2   1   3     1.499005295355   110.15348632   180.04453165
 H      4   2   1     1.102945195310   109.93113177   301.51173830
 H      4   2   1     1.103004140683   109.87934010    59.21100315
 H      4   2   1     1.098357765008   109.60549327   180.32796805
 C      1   2   3     1.367868895062   118.55354611     0.06850961
 H      8   1   2     1.093883006405   114.30946775   359.77120462
 C      8   1   2     1.330288860106   120.70618443   179.77007026
 H     10   8   1     1.094835750093   121.45694713     0.00000000
 H     10   8   1     1.093025773115   119.56271693   179.99028696

---------------------------
INTERNAL COORDINATES (A.U.)
---------------------------
 O      0   0   0     0.000000000000     0.00000000     0.00000000
 C      1   0   0     2.567823759806     0.00000000     0.00000000
 O      2   1   0     2.263599581032   123.51036859     0.00000000
 C      2   1   3     2.832709481518   110.15348632   180.04453165
 H      4   2   1     2.084264359861   109.93113177   301.51173830
 H      4   2   1     2.084375750472   109.87934010    59.21100315
 H      4   2   1     2.075595372931   109.60549327   180.32796805
 C      1   2   3     2.584897598777   118.55354611     0.06850961
 H      8   1   2     2.067139304656   114.30946775   359.77120462
 C      8   1   2     2.513881624607   120.70618443   179.77007026
 H     10   8   1     2.068939729303   121.45694713     0.00000000
 H     10   8   1     2.065519368504   119.56271693   179.99028696

---------------------
BASIS SET INFORMATION
---------------------
There are 3 groups of distinct atoms

 Group   1 Type O   : 11s6p2d1f contracted to 5s3p2d1f pattern {62111/411/11/1}
 Group   2 Type C   : 11s6p2d1f contracted to 5s3p2d1f pattern {62111/411/11/1}
 Group   3 Type H   : 5s1p contracted to 3s1p pattern {311/1}

Atom   0O    basis set group =>   1
Atom   1C    basis set group =>   2
Atom   2O    basis set group =>   1
Atom   3C    basis set group =>   2
Atom   4H    basis set group =>   3
Atom   5H    basis set group =>   3
Atom   6H    basis set group =>   3
Atom   7C    basis set group =>   2
Atom   8H    basis set group =>   3
Atom   9C    basis set group =>   2
Atom  10H    basis set group =>   3
Atom  11H    basis set group =>   3
---------------------------------
AUXILIARY/J BASIS SET INFORMATION
---------------------------------
There are 3 groups of distinct atoms

 Group   1 Type O   : 12s5p4d2f1g contracted to 6s4p3d1f1g pattern {711111/2111/211/2/1}
 Group   2 Type C   : 12s5p4d2f1g contracted to 6s4p3d1f1g pattern {711111/2111/211/2/1}
 Group   3 Type H   : 5s2p1d contracted to 3s1p1d pattern {311/2/1}

Atom   0O    basis set group =>   1
Atom   1C    basis set group =>   2
Atom   2O    basis set group =>   1
Atom   3C    basis set group =>   2
Atom   4H    basis set group =>   3
Atom   5H    basis set group =>   3
Atom   6H    basis set group =>   3
Atom   7C    basis set group =>   2
Atom   8H    basis set group =>   3
Atom   9C    basis set group =>   2
Atom  10H    basis set group =>   3
Atom  11H    basis set group =>   3


           ************************************************************
           *        Program running with 4 parallel MPI-processes     *
           *              working on a common directory               *
           ************************************************************
------------------------------------------------------------------------------
                             ORCA STARTUP CALCULATIONS
                           -- RI-GTO INTEGRALS CHOSEN --
------------------------------------------------------------------------------
------------------------------------------------------------------------------
                   ___                                                        
                  /   \      - P O W E R E D   B Y -                         
                 /     \                                                     
                 |  |  |   _    _      __       _____    __    __             
                 |  |  |  | |  | |    /  \     |  _  \  |  |  /  |          
                  \  \/   | |  | |   /    \    | | | |  |  | /  /          
                 / \  \   | |__| |  /  /\  \   | |_| |  |  |/  /          
                |  |  |   |  __  | /  /__\  \  |    /   |      \           
                |  |  |   | |  | | |   __   |  |    \   |  |\   \          
                \     /   | |  | | |  |  |  |  | |\  \  |  | \   \       
                 \___/    |_|  |_| |__|  |__|  |_| \__\ |__|  \__/        
                                                                              
                      - O R C A' S   B I G   F R I E N D -                    
                                      &                                       
                       - I N T E G R A L  F E E D E R -                       
                                                                              
 v1 FN, 2020, v2 2021, v3 2022-2024                                           
------------------------------------------------------------------------------


----------------------
SHARK INTEGRAL PACKAGE
----------------------

Number of atoms                             ...     12
Number of basis functions                   ...    222
Number of shells                            ...     90
Maximum angular momentum                    ...      3
Integral batch strategy                     ... SHARK/LIBINT Hybrid
RI-J (if used) integral strategy            ... SPLIT-RIJ (Revised 2003 algorithm where possible)
Printlevel                                  ...      1
Contraction scheme used                     ... SEGMENTED contraction
Prescreening option                         ... SCHWARTZ
   Thresh                                   ... 2.500e-11
   Tcut                                     ... 2.500e-12
   Tpresel                                  ... 2.500e-12 
Coulomb Range Separation                    ... NOT USED
Exchange Range Separation                   ... NOT USED
Multipole approximations                    ... NOT USED
Finite Nucleus Model                        ... NOT USED
CABS basis                                  ... NOT available
Auxiliary Coulomb fitting basis             ... AVAILABLE
   # of basis functions in Aux-J            ...    360
   # of shells in Aux-J                     ...    120
   Maximum angular momentum in Aux-J        ...      4
Auxiliary J/K fitting basis                 ... NOT available
Auxiliary Correlation fitting basis         ... NOT available
Auxiliary 'external' fitting basis          ... NOT available

Checking pre-screening integrals            ... done (  0.0 sec) Dimension = 90
Check shell pair data                       ... done (  0.0 sec)
Shell pair information
Shell pair cut-off parameter TPreSel        ...   2.5e-12
Total number of shell pairs                 ...      4095
Shell pairs after pre-screening             ...      3773
Total number of primitive shell pairs       ...     12396
Primitive shell pairs kept                  ...      8799
          la=0 lb=0:   1046 shell pairs
          la=1 lb=0:   1065 shell pairs
          la=1 lb=1:    285 shell pairs
          la=2 lb=0:    530 shell pairs
          la=2 lb=1:    275 shell pairs
          la=2 lb=2:     76 shell pairs
          la=3 lb=0:    266 shell pairs
          la=3 lb=1:    140 shell pairs
          la=3 lb=2:     69 shell pairs
          la=3 lb=3:     21 shell pairs

Calculating one electron integrals          ... done (  0.0 sec)
Calculating RI/J V-Matrix + Cholesky decomp.... done (  0.0 sec)
Calculating Nuclear repulsion               ... done (  0.0 sec) ENN=    226.614215095698 Eh

Diagonalization of the overlap matrix:
Smallest eigenvalue                        ... 1.452e-04
Time for diagonalization                   ...    0.013 sec
Threshold for overlap eigenvalues          ... 1.000e-07
Number of eigenvalues below threshold      ... 0
Time for construction of square roots      ...    0.016 sec
Total time needed                          ...    0.051 sec

-------------------
DFT GRID GENERATION
-------------------

General Integration Accuracy     IntAcc      ... 4.388
Radial Grid Type                 RadialGrid  ... OptM3 with GC (2021)
Angular Grid (max. ang.)         AngularGrid ... 4 (Lebedev-302)
Angular grid pruning method      GridPruning ... 4 (adaptive)
Weight generation scheme         WeightScheme... mBecke (2022)
Basis function cutoff            BFCut       ... 1.0000e-11
Integration weight cutoff        WCut        ... 1.0000e-14
Partially contracted basis set               ... off
Rotationally invariant grid construction     ... off
Angular grids for H and He will be reduced by one unit

Total number of grid points                  ...    55979
Total number of batches                      ...      880
Average number of points per batch           ...       63
Average number of grid points per atom       ...     4665

--------------------
COSX GRID GENERATION
--------------------

GRIDX 1
-------
General Integration Accuracy     IntAcc      ... 3.816
Radial Grid Type                 RadialGrid  ... OptM3 with GC (2021)
Angular Grid (max. ang.)         AngularGrid ... 1 (Lebedev-50)
Angular grid pruning method      GridPruning ... 4 (adaptive)
Weight generation scheme         WeightScheme... mBecke (2022)
Basis function cutoff            BFCut       ... 1.0000e-11
Integration weight cutoff        WCut        ... 1.0000e-14
Partially contracted basis set               ... on
Rotationally invariant grid construction     ... off
Angular grids for H and He will be reduced by one unit

Total number of grid points                  ...     7168
Total number of batches                      ...       64
Average number of points per batch           ...      112
Average number of grid points per atom       ...      597
UseSFitting                                  ... on

GRIDX 2
-------
General Integration Accuracy     IntAcc      ... 4.020
Radial Grid Type                 RadialGrid  ... OptM3 with GC (2021)
Angular Grid (max. ang.)         AngularGrid ... 2 (Lebedev-110)
Angular grid pruning method      GridPruning ... 4 (adaptive)
Weight generation scheme         WeightScheme... mBecke (2022)
Basis function cutoff            BFCut       ... 1.0000e-11
Integration weight cutoff        WCut        ... 1.0000e-14
Partially contracted basis set               ... on
Rotationally invariant grid construction     ... off
Angular grids for H and He will be reduced by one unit

Total number of grid points                  ...    15718
Total number of batches                      ...      129
Average number of points per batch           ...      121
Average number of grid points per atom       ...     1310
UseSFitting                                  ... on

GRIDX 3
-------
General Integration Accuracy     IntAcc      ... 4.338
Radial Grid Type                 RadialGrid  ... OptM3 with GC (2021)
Angular Grid (max. ang.)         AngularGrid ... 3 (Lebedev-194)
Angular grid pruning method      GridPruning ... 4 (adaptive)
Weight generation scheme         WeightScheme... mBecke (2022)
Basis function cutoff            BFCut       ... 1.0000e-11
Integration weight cutoff        WCut        ... 1.0000e-14
Partially contracted basis set               ... on
Rotationally invariant grid construction     ... off
Angular grids for H and He will be reduced by one unit

Total number of grid points                  ...    34625
Total number of batches                      ...      275
Average number of points per batch           ...      125
Average number of grid points per atom       ...     2885
UseSFitting                                  ... on
Initializing property integral containers    ... done (  0.0 sec)

SHARK setup successfully completed in   1.8 seconds

Maximum memory used throughout the entire STARTUP-calculation: 20.5 MB


           ************************************************************
           *        Program running with 4 parallel MPI-processes     *
           *              working on a common directory               *
           ************************************************************
-------------------------------------------------------------------------------
                                 ORCA GUESS
                   Start orbitals & Density for SCF / CASSCF
-------------------------------------------------------------------------------

------------
SCF SETTINGS
------------
Hamiltonian:
 Density Functional     Method          .... DFT(GTOs)
  Functional kind                       .... Exchange
  Functional name                       .... Re-regularized SCAN exchange by Furness et al
  Functional family                     .... MGGA
  Functional refs                              
    [ 0] J. W. Furness, A. D. Kaplan, J. Ning, J. P. Perdew, and J. Sun.,  J. Phys. Chem. Lett. 11, 8208-8215 (2020), doi: 10.1021/acs.jpclett.0c02405
    [ 1] J. W. Furness, A. D. Kaplan, J. Ning, J. P. Perdew, and J. Sun.,  J. Phys. Chem. Lett. 11, 9248-9248 (2020), doi: 10.1021/acs.jpclett.0c03077
  Functional external parameters        .... 6
    Parameter  0 _c1        =  6.670000e-01 : c1 parameter        
    Parameter  1 _c2        =  8.000000e-01 : c2 parameter        
    Parameter  2 _d         =  1.240000e+00 : d parameter         
    Parameter  3 _k1        =  6.500000e-02 : k1 parameter        
    Parameter  4 _eta       =  1.000000e-03 : eta parameter       
    Parameter  5 _dp2       =  3.610000e-01 : dp2 parameter       
  Functional kind                       .... Correlation
  Functional name                       .... Re-regularized SCAN correlation by Furness et al
  Functional family                     .... MGGA
  Functional refs                              
    [ 0] J. W. Furness, A. D. Kaplan, J. Ning, J. P. Perdew, and J. Sun.,  J. Phys. Chem. Lett. 11, 8208-8215 (2020), doi: 10.1021/acs.jpclett.0c02405
    [ 1] J. W. Furness, A. D. Kaplan, J. Ning, J. P. Perdew, and J. Sun.,  J. Phys. Chem. Lett. 11, 9248-9248 (2020), doi: 10.1021/acs.jpclett.0c03077
  Functional external parameters        .... 1
    Parameter  0 _eta       =  1.000000e-03 : Regularization parameter
 Gradients option       PostSCFGGA      .... off
 Hybrid DFT is turned on
   Fraction HF Exchange ScalHFX         ....  0.100000
   Scaling of DF-GGA-X  ScalDFX         ....  0.900000
   Scaling of DF-GGA-C  ScalDFC         ....  1.000000
   Scaling of DF-LDA-C  ScalLDAC        ....  1.000000
   Perturbative correction              ....  0.000000
   NL short-range parameter             .... 11.900000
 RI-approximation to the Coulomb term is turned on
   Number of AuxJ basis functions       .... 360
   RIJ-COSX (HFX calculated with COS-X)).... on


General Settings:
 Integral files         IntName         .... CS_PdOAc_010_sp_02
 Hartree-Fock type      HFTyp           .... RHF
 Total Charge           Charge          ....    0
 Multiplicity           Mult            ....    1
 Number of Electrons    NEL             ....   46
 Basis Dimension        Dim             ....  222
 Nuclear Repulsion      ENuc            ....    226.6142150957 Eh

Convergence Acceleration:
 AO-DIIS                CNVDIIS         .... on
   Start iteration      DIISMaxIt       ....     0
   Startup error        DIISStart       ....  0.200000
   # of expansion vecs  DIISMaxEq       ....     5
   Bias factor          DIISBfac        ....   1.050
   Max. coefficient     DIISMaxC        ....  10.000
 MO-DIIS                CNVKDIIS        .... off
 Trust-Rad. Augm. Hess. CNVTRAH         .... auto
   Auto Start mean grad. ratio tolernc. ....  1.125000
   Auto Start start iteration           ....    50
   Auto Start num. interpolation iter.  ....    10
   Max. Number of Micro iterations      ....    24
   Max. Number of Macro iterations      .... Maxiter - #DIIS iter
   Number of Davidson start vectors     ....     2
   Converg. threshold    (grad. norm)   ....   1.000e-05
   Grad. Scal. Fac. for Micro threshold ....   0.100
   Minimum threshold for Micro iter.    ....   1.000e-02
   NR start threshold (gradient norm)   ....   1.000e-04
   Initial trust radius                 ....   0.400
   Minimum AH scaling param. (alpha)    ....   1.000
   Maximum AH scaling param. (alpha)    .... 1000.000
   Quad. conv. algorithm                .... NR
   White noise on init. David. guess    .... on
   Maximum white noise                  ....   0.010
   Pseudo random numbers                .... off
   Inactive MOs                         .... canonical
   Orbital update algorithm             .... Taylor
   Preconditioner                       .... Diag
   Full preconditioner red. dimension   ....   250
 SOSCF                  CNVSOSCF        .... on
   Start iteration      SOSCFMaxIt      ....   150
   Startup grad/error   SOSCFStart      ....  0.001000
   Hessian update       SOSCFHessUp     .... L-BFGS
 Level Shifting         CNVShift        .... on
   Level shift para.    LevelShift      ....    0.2500
   Turn off err/grad.   ShiftErr        ....    0.0000
 Zerner damping         CNVZerner       .... off
 Static damping         CNVDamp         .... on
   Fraction old density DampFac         ....    0.8500
   Max. Damping (<1)    DampMax         ....    0.9800
   Min. Damping (>=0)   DampMin         ....    0.0000
   Turn off err/grad.   DampErr         ....    0.0300

SCF Procedure:
 Maximum # iterations   MaxIter         ....  1500
 SCF integral mode      SCFMode         .... Direct
   Integral package                     .... SHARK and LIBINT hybrid scheme
 Reset frequency        DirectResetFreq ....    20
 Integral Threshold     Thresh          ....  2.500e-11 Eh
 Primitive CutOff       TCut            ....  2.500e-12 Eh

Convergence Tolerance:
 Convergence Check Mode ConvCheckMode   .... Total+1el-Energy
 Convergence forced     ConvForced      .... 0
 Energy Change          TolE            ....  1.000e-08 Eh
 1-El. energy change                    ....  1.000e-05 Eh
 Orbital Gradient       TolG            ....  1.000e-05
 Orbital Rotation angle TolX            ....  1.000e-05
 DIIS Error             TolErr          ....  5.000e-07

------------------------------
INITIAL GUESS: MODEL POTENTIAL
------------------------------
Loading Hartree-Fock densities                     ... done
Calculating cut-offs                               ... done
Initializing the effective Hamiltonian             ... done
Setting up the integral package (SHARK)            ... done
Starting the Coulomb interaction                   ... done (   0.2 sec)
Making the grid                                    ... done (   0.2 sec)
Mapping shells                                     ... done
Starting the XC term evaluation                    ... done (   0.1 sec)
  promolecular density results
     # of electrons  =     45.997295578
     EX              =    -38.499847088
     EC              =     -1.512438439
     EX+EC           =    -40.012285527
Transforming the Hamiltonian                       ... done (   0.0 sec)
Diagonalizing the Hamiltonian                      ... done (   0.0 sec)
Back transforming the eigenvectors                 ... done (   0.0 sec)
Now organizing SCF variables                       ... done
                      ------------------
                      INITIAL GUESS DONE (   0.6 sec)
                      ------------------
             **** ENERGY FILE WAS UPDATED (CS_PdOAc_010_sp_02.en.tmp) ****
Finished Guess after   1.9 sec
Maximum memory used throughout the entire GUESS-calculation: 13.2 MB


           ************************************************************
           *        Program running with 4 parallel MPI-processes     *
           *              working on a common directory               *
           ************************************************************

-------------------------------------------------------------------------------------------
                                      ORCA LEAN-SCF
                              memory conserving SCF solver
-------------------------------------------------------------------------------------------

----------------------------------------D-I-I-S--------------------------------------------
Iteration    Energy (Eh)           Delta-E    RMSDP     MaxDP     DIISErr   Damp  Time(sec)
-------------------------------------------------------------------------------------------
               ***  Starting incremental Fock matrix formation  ***
    1    -306.2069820786207401     0.00e+00  8.07e-04  2.60e-02  2.66e-01  0.850   3.6
    2    -306.2644679542852373    -5.75e-02  8.13e-04  2.27e-02  1.83e-01  0.850   3.4
                               ***Turning on AO-DIIS***
    3    -306.2994734130558072    -3.50e-02  4.17e-04  9.04e-03  1.11e-01  0.850   2.8
    4    -306.3212538079766318    -2.18e-02  2.63e-04  5.80e-03  8.90e-02  0.850   3.5
    5    -306.3367809922452807    -1.55e-02  1.95e-04  4.19e-03  7.66e-02  0.850   2.2
    6    -306.3489881934789310    -1.22e-02  1.60e-04  4.01e-03  6.57e-02  0.850   2.4
    7    -306.3590188115482533    -1.00e-02  1.39e-04  3.80e-03  5.46e-02  0.850   2.3
    8    -306.3673206476462383    -8.30e-03  1.15e-04  2.72e-03  4.40e-02  0.850   3.0
    9    -306.3741246419155004    -6.80e-03  9.67e-05  2.22e-03  3.66e-02  0.850   2.1
   10    -306.3797351184767876    -5.61e-03  8.15e-05  1.82e-03  3.12e-02  0.850   4.9
   11    -306.3844025099747341    -4.67e-03  6.92e-05  1.62e-03  2.66e-02  0.850   2.2
   12    -306.3883072176031419    -3.90e-03  3.92e-04  9.45e-03  2.21e-02  0.000   2.9
   13    -306.4092768117011474    -2.10e-02  4.49e-05  1.84e-03  3.80e-03  0.000   3.1
   14    -306.4092898573487673    -1.30e-05  1.55e-05  4.97e-04  2.04e-03  0.000   2.9
                              *** Initializing SOSCF ***
---------------------------------------S-O-S-C-F--------------------------------------
Iteration    Energy (Eh)           Delta-E    RMSDP     MaxDP     MaxGrad    Time(sec)
--------------------------------------------------------------------------------------
   15    -306.4093001562403060    -1.03e-05  5.04e-06  1.24e-04  4.67e-04     2.1
               *** Restarting incremental Fock matrix formation ***
   16    -306.4092995644341499     5.92e-07  4.67e-06  1.28e-04  4.98e-05     2.9
   17    -306.4092994569232360     1.08e-07  2.57e-06  7.91e-05  9.99e-05     2.9
   18    -306.4092996061834810    -1.49e-07  8.28e-07  2.21e-05  1.37e-05     2.3
   19    -306.4092995994709554     6.71e-09  5.33e-07  1.34e-05  2.17e-05     2.2
                 **** Energy Check signals convergence ****

               *****************************************************
               *                     SUCCESS                       *
               *           SCF CONVERGED AFTER  19 CYCLES          *
               *****************************************************

Recomputing exchange energy using gridx3       ... done (    2.815 sec)
Old exchange energy                            :     -3.929123764 Eh
New exchange energy                            :     -3.929128215 Eh
Exchange energy change after final integration :     -0.000004452 Eh
Total energy after final integration           :   -306.409304051 Eh
             **** ENERGY FILE WAS UPDATED (CS_PdOAc_010_sp_02.en.tmp) ****

----------------
TOTAL SCF ENERGY
----------------

Total Energy       :       -306.40930405098817 Eh           -8337.82105 eV

Components:
Nuclear Repulsion  :        226.61421509569800 Eh            6166.48629 eV
Electronic Energy  :       -533.02351469516907 Eh          -14504.30722 eV
One Electron Energy:       -865.11662252140763 Eh          -23541.02010 eV
Two Electron Energy:        332.09310782623862 Eh            9036.71288 eV

Virial components:
Potential Energy   :       -611.40953922691676 Eh          -16637.29939 eV
Kinetic Energy     :        305.00023517592859 Eh            8299.47834 eV
Virial Ratio       :          2.00461989438876

DFT components:
N(Alpha)           :       23.000008211196 electrons
N(Beta)            :       23.000008211196 electrons
N(Total)           :       46.000016422391 electrons
E(X)               :      -35.521641751481 Eh       
E(C)               :       -1.483578681995 Eh       
E(XC)              :      -37.005220433475 Eh       

---------------
SCF CONVERGENCE
---------------

  Last Energy change         ...   -6.7125e-09  Tolerance :   1.0000e-08
  Last MAX-Density change    ...    1.3384e-05  Tolerance :   1.0000e-07
  Last RMS-Density change    ...    5.3252e-07  Tolerance :   5.0000e-09
  Last DIIS Error            ...    4.6670e-04  Tolerance :   5.0000e-07
  Last Orbital Gradient      ...    2.1650e-05  Tolerance :   1.0000e-05
  Last Orbital Rotation      ...    2.2077e-05  Tolerance :   1.0000e-05


----------------
ORBITAL ENERGIES
----------------

  NO   OCC          E(Eh)            E(eV) 
   0   2.0000     -19.181083      -521.9438 
   1   2.0000     -19.110996      -520.0366 
   2   2.0000     -10.295486      -280.1544 
   3   2.0000     -10.220199      -278.1057 
   4   2.0000     -10.175024      -276.8765 
   5   2.0000     -10.155537      -276.3462 
   6   2.0000      -1.133167       -30.8350 
   7   2.0000      -1.042501       -28.3679 
   8   2.0000      -0.796124       -21.6636 
   9   2.0000      -0.744347       -20.2547 
  10   2.0000      -0.633079       -17.2270 
  11   2.0000      -0.559329       -15.2201 
  12   2.0000      -0.499894       -13.6028 
  13   2.0000      -0.481634       -13.1059 
  14   2.0000      -0.476408       -12.9637 
  15   2.0000      -0.429514       -11.6877 
  16   2.0000      -0.410550       -11.1716 
  17   2.0000      -0.406087       -11.0502 
  18   2.0000      -0.401236       -10.9182 
  19   2.0000      -0.353344        -9.6150 
  20   2.0000      -0.352350        -9.5879 
  21   2.0000      -0.280138        -7.6229 
  22   2.0000      -0.250551        -6.8178 
  23   0.0000      -0.032406        -0.8818 
  24   0.0000       0.015382         0.4186 
  25   0.0000       0.058622         1.5952 
  26   0.0000       0.095455         2.5975 
  27   0.0000       0.107184         2.9166 
  28   0.0000       0.113299         3.0830 
  29   0.0000       0.131828         3.5872 
  30   0.0000       0.134902         3.6709 
  31   0.0000       0.146545         3.9877 
  32   0.0000       0.160172         4.3585 
  33   0.0000       0.195410         5.3174 
*Only the first 10 virtual orbitals were printed.

                    ********************************
                    * MULLIKEN POPULATION ANALYSIS *
                    ********************************

-----------------------
MULLIKEN ATOMIC CHARGES
-----------------------
   0 O :   -0.235463
   1 C :    0.369453
   2 O :   -0.346653
   3 C :   -0.350905
   4 H :    0.136071
   5 H :    0.136090
   6 H :    0.140453
   7 C :    0.029361
   8 H :    0.149196
   9 C :   -0.295182
  10 H :    0.130436
  11 H :    0.137141
Sum of atomic charges:    0.0000000

--------------------------------
MULLIKEN REDUCED ORBITAL CHARGES
--------------------------------
  0 O s       :     3.770125  s :     3.770125
      pz      :     1.470191  p :     4.420212
      px      :     1.503046
      py      :     1.446976
      dz2     :     0.007327  d :     0.042833
      dxz     :     0.008954
      dyz     :     0.007268
      dx2y2   :     0.010501
      dxy     :     0.008783
      f0      :     0.000278  f :     0.002293
      f+1     :     0.000209
      f-1     :     0.000408
      f+2     :     0.000484
      f-2     :     0.000398
      f+3     :     0.000262
      f-3     :     0.000254

  1 C s       :     3.083360  s :     3.083360
      pz      :     0.770778  p :     2.261865
      px      :     0.691810
      py      :     0.799277
      dz2     :     0.031230  d :     0.260602
      dxz     :     0.074179
      dyz     :     0.020791
      dx2y2   :     0.067829
      dxy     :     0.066571
      f0      :     0.001961  f :     0.024720
      f+1     :     0.003926
      f-1     :     0.001689
      f+2     :     0.003015
      f-2     :     0.004127
      f+3     :     0.006482
      f-3     :     0.003520

  2 O s       :     3.844133  s :     3.844133
      pz      :     1.540305  p :     4.467833
      px      :     1.386207
      py      :     1.541321
      dz2     :     0.003079  d :     0.032602
      dxz     :     0.009215
      dyz     :     0.001805
      dx2y2   :     0.009179
      dxy     :     0.009324
      f0      :     0.000233  f :     0.002084
      f+1     :     0.000266
      f-1     :     0.000071
      f+2     :     0.000232
      f-2     :     0.000236
      f+3     :     0.000610
      f-3     :     0.000437

  3 C s       :     3.273060  s :     3.273060
      pz      :     1.001116  p :     3.039244
      px      :     1.071540
      py      :     0.966588
      dz2     :     0.005497  d :     0.035256
      dxz     :     0.008371
      dyz     :     0.007637
      dx2y2   :     0.005898
      dxy     :     0.007853
      f0      :     0.000058  f :     0.003343
      f+1     :     0.000089
      f-1     :     0.000453
      f+2     :     0.001086
      f-2     :     0.001185
      f+3     :     0.000204
      f-3     :     0.000269

  4 H s       :     0.840978  s :     0.840978
      pz      :     0.006888  p :     0.022950
      px      :     0.006424
      py      :     0.009638

  5 H s       :     0.840951  s :     0.840951
      pz      :     0.008985  p :     0.022959
      px      :     0.008592
      py      :     0.005383

  6 H s       :     0.836771  s :     0.836771
      pz      :     0.006471  p :     0.022776
      px      :     0.010741
      py      :     0.005564

  7 C s       :     3.218264  s :     3.218264
      pz      :     0.848642  p :     2.631675
      px      :     0.997808
      py      :     0.785225
      dz2     :     0.033636  d :     0.107984
      dxz     :     0.011791
      dyz     :     0.014829
      dx2y2   :     0.027221
      dxy     :     0.020507
      f0      :     0.001031  f :     0.012716
      f+1     :     0.001572
      f-1     :     0.002605
      f+2     :     0.002009
      f-2     :     0.002091
      f+3     :     0.001816
      f-3     :     0.001593

  8 H s       :     0.826913  s :     0.826913
      pz      :     0.004179  p :     0.023891
      px      :     0.014706
      py      :     0.005007

  9 C s       :     3.267361  s :     3.267361
      pz      :     1.018414  p :     2.990879
      px      :     0.945281
      py      :     1.027185
      dz2     :     0.006486  d :     0.031467
      dxz     :     0.004822
      dyz     :     0.005472
      dx2y2   :     0.008427
      dxy     :     0.006259
      f0      :     0.000369  f :     0.005475
      f+1     :     0.001050
      f-1     :     0.000770
      f+2     :     0.001168
      f-2     :     0.000672
      f+3     :     0.000591
      f-3     :     0.000854

 10 H s       :     0.846203  s :     0.846203
      pz      :     0.005015  p :     0.023361
      px      :     0.012246
      py      :     0.006099

 11 H s       :     0.838957  s :     0.838957
      pz      :     0.009157  p :     0.023902
      px      :     0.003875
      py      :     0.010871



                     *******************************
                     * LOEWDIN POPULATION ANALYSIS *
                     *******************************

----------------------
LOEWDIN ATOMIC CHARGES
----------------------
   0 O :    0.304328
   1 C :   -0.488644
   2 O :    0.117730
   3 C :   -0.257434
   4 H :    0.142549
   5 H :    0.142716
   6 H :    0.138194
   7 C :   -0.272784
   8 H :    0.141989
   9 C :   -0.229888
  10 H :    0.128400
  11 H :    0.132845

-------------------------------
LOEWDIN REDUCED ORBITAL CHARGES
-------------------------------
  0 O s       :     3.230073  s :     3.230073
      pz      :     1.422164  p :     4.341897
      px      :     1.498452
      py      :     1.421281
      dz2     :     0.019339  d :     0.116714
      dxz     :     0.024092
      dyz     :     0.023016
      dx2y2   :     0.026008
      dxy     :     0.024259
      f0      :     0.000815  f :     0.006988
      f+1     :     0.000725
      f-1     :     0.000942
      f+2     :     0.001063
      f-2     :     0.001222
      f+3     :     0.001310
      f-3     :     0.000910

  1 C s       :     2.760190  s :     2.760190
      pz      :     0.820459  p :     2.633830
      px      :     0.925748
      py      :     0.887623
      dz2     :     0.117597  d :     0.941938
      dxz     :     0.239677
      dyz     :     0.085619
      dx2y2   :     0.261580
      dxy     :     0.237465
      f0      :     0.013551  f :     0.152686
      f+1     :     0.025194
      f-1     :     0.007111
      f+2     :     0.015784
      f-2     :     0.026895
      f+3     :     0.042340
      f-3     :     0.021811

  2 O s       :     3.398230  s :     3.398230
      pz      :     1.432359  p :     4.408254
      px      :     1.506764
      py      :     1.469132
      dz2     :     0.008451  d :     0.069376
      dxz     :     0.014915
      dyz     :     0.003511
      dx2y2   :     0.021236
      dxy     :     0.021263
      f0      :     0.000604  f :     0.006410
      f+1     :     0.000990
      f-1     :     0.000228
      f+2     :     0.000563
      f-2     :     0.000627
      f+3     :     0.001670
      f-3     :     0.001728

  3 C s       :     2.842840  s :     2.842840
      pz      :     1.054508  p :     3.171933
      px      :     1.072411
      py      :     1.045014
      dz2     :     0.022679  d :     0.219242
      dxz     :     0.056224
      dyz     :     0.058932
      dx2y2   :     0.037012
      dxy     :     0.044395
      f0      :     0.003627  f :     0.023419
      f+1     :     0.001632
      f-1     :     0.004010
      f+2     :     0.003582
      f-2     :     0.003971
      f+3     :     0.003056
      f-3     :     0.003541

  4 H s       :     0.795114  s :     0.795114
      pz      :     0.019809  p :     0.062338
      px      :     0.017630
      py      :     0.024898

  5 H s       :     0.794947  s :     0.794947
      pz      :     0.023683  p :     0.062337
      px      :     0.023697
      py      :     0.014957

  6 H s       :     0.799925  s :     0.799925
      pz      :     0.017035  p :     0.061882
      px      :     0.030389
      py      :     0.014458

  7 C s       :     2.813527  s :     2.813527
      pz      :     0.896374  p :     2.853807
      px      :     1.094604
      py      :     0.862829
      dz2     :     0.116368  d :     0.526331
      dxz     :     0.072208
      dyz     :     0.101711
      dx2y2   :     0.127753
      dxy     :     0.108292
      f0      :     0.008011  f :     0.079118
      f+1     :     0.008293
      f-1     :     0.013495
      f+2     :     0.012845
      f-2     :     0.014065
      f+3     :     0.012782
      f-3     :     0.009628

  8 H s       :     0.793442  s :     0.793442
      pz      :     0.011562  p :     0.064569
      px      :     0.038781
      py      :     0.014225

  9 C s       :     2.869199  s :     2.869199
      pz      :     1.021018  p :     3.117592
      px      :     1.077123
      py      :     1.019451
      dz2     :     0.030005  d :     0.215311
      dxz     :     0.036741
      dyz     :     0.033289
      dx2y2   :     0.071339
      dxy     :     0.043937
      f0      :     0.002620  f :     0.027785
      f+1     :     0.005159
      f-1     :     0.001647
      f+2     :     0.004544
      f-2     :     0.005118
      f+3     :     0.004414
      f-3     :     0.004284

 10 H s       :     0.808458  s :     0.808458
      pz      :     0.014183  p :     0.063142
      px      :     0.031415
      py      :     0.017544

 11 H s       :     0.803915  s :     0.803915
      pz      :     0.023268  p :     0.063240
      px      :     0.011859
      py      :     0.028113



                      *****************************
                      * MAYER POPULATION ANALYSIS *
                      *****************************

  NA   - Mulliken gross atomic population
  ZA   - Total nuclear charge
  QA   - Mulliken gross atomic charge
  VA   - Mayer's total valence
  BVA  - Mayer's bonded valence
  FA   - Mayer's free valence

  ATOM       NA         ZA         QA         VA         BVA        FA
  0 O      8.2355     8.0000    -0.2355     2.1040     2.1040    -0.0000
  1 C      5.6305     6.0000     0.3695     4.1108     4.1108     0.0000
  2 O      8.3467     8.0000    -0.3467     2.1391     2.1391     0.0000
  3 C      6.3509     6.0000    -0.3509     3.8479     3.8479     0.0000
  4 H      0.8639     1.0000     0.1361     0.9787     0.9787     0.0000
  5 H      0.8639     1.0000     0.1361     0.9786     0.9786    -0.0000
  6 H      0.8595     1.0000     0.1405     0.9849     0.9849     0.0000
  7 C      5.9706     6.0000     0.0294     3.8303     3.8303     0.0000
  8 H      0.8508     1.0000     0.1492     0.9900     0.9900     0.0000
  9 C      6.2952     6.0000    -0.2952     3.8575     3.8575     0.0000
 10 H      0.8696     1.0000     0.1304     0.9845     0.9845    -0.0000
 11 H      0.8629     1.0000     0.1371     0.9767     0.9767     0.0000

  Mayer bond orders larger than 0.100000
B(  0-O ,  1-C ) :   1.0733 B(  0-O ,  7-C ) :   0.9616 B(  1-C ,  2-O ) :   2.0060 
B(  1-C ,  3-C ) :   0.9786 B(  3-C ,  4-H ) :   0.9477 B(  3-C ,  5-H ) :   0.9473 
B(  3-C ,  6-H ) :   0.9801 B(  7-C ,  8-H ) :   0.9486 B(  7-C ,  9-C ) :   1.8732 
B(  9-C , 10-H ) :   0.9578 B(  9-C , 11-H ) :   0.9603 

-------
TIMINGS
-------

Total SCF time: 0 days 0 hours 0 min 57 sec 

Total time                  ....      57.631 sec
Sum of individual times     ....      56.815 sec  ( 98.6%)

SCF preparation             ....       0.601 sec  (  1.0%)
Fock matrix formation       ....      42.815 sec  ( 74.3%)
  Startup                   ....       1.164 sec  (  2.7% of F)
  Split-RI-J                ....       4.457 sec  ( 10.4% of F)
  Chain of spheres X        ....      21.768 sec  ( 50.8% of F)
  XC integration            ....      12.338 sec  ( 28.8% of F)
    XC Preparation          ....       0.000 sec  (  0.0% of XC)
    Basis function eval.    ....       1.652 sec  ( 13.4% of XC)
    Density eval.           ....       3.318 sec  ( 26.9% of XC)
    XC-Functional eval.     ....       1.082 sec  (  8.8% of XC)
    XC-Potential eval.      ....       3.931 sec  ( 31.9% of XC)
Diagonalization             ....       0.000 sec  (  0.0%)
Density matrix formation    ....       3.739 sec  (  6.5%)
Total Energy calculation    ....       1.048 sec  (  1.8%)
Population analysis         ....       0.222 sec  (  0.4%)
Orbital Transformation      ....       0.226 sec  (  0.4%)
Orbital Orthonormalization  ....       0.000 sec  (  0.0%)
DIIS solution               ....       7.671 sec  ( 13.3%)
SOSCF solution              ....       0.494 sec  (  0.9%)
Finished LeanSCF after  57.8 sec

Maximum memory used throughout the entire LEANSCF-calculation: 20.1 MB


-------------------------------------------------------------------------------
                          DFT DISPERSION CORRECTION                            
                                                                               
                              DFTD3 V3.1  Rev 1                                
                          USING Becke-Johnson damping                          
-------------------------------------------------------------------------------
The R2SCANh functional is recognized
Active option DFTDOPT                   ...         4   

molecular C6(AA) [au] = 1339.656859 


            DFT-D V3
 parameters
 s6 scaling factor         :     1.0000 
 a1 scaling factor         :     0.4709 
 s8 scaling factor         :     1.1236 
 a2 scaling factor         :     5.9157 
 ad hoc parameters k1-k3   :    16.0000     1.3333    -4.0000 

 Edisp/kcal,au: -1.465219866823  -0.002334976237 
 E6   /kcal   :  -1.075578158 
 E8   /kcal   :  -0.389641709 
 % E8         :  26.592712660 

-------------------------   ----------------
Dispersion correction           -0.002334976
-------------------------   ----------------


-------------------------   --------------------
FINAL SINGLE POINT ENERGY      -306.411639027225
-------------------------   --------------------



           ************************************************************
           *        Program running with 4 parallel MPI-processes     *
           *              working on a common directory               *
           ************************************************************

------------------------------------------------------------------------------
                              ORCA PROPERTY CALCULATIONS
------------------------------------------------------------------------------

GBWName                                 ... CS_PdOAc_010_sp_02.gbw
Number of atoms                         ...     12
Number of basis functions               ...    222
Max core memory                         ...   3500 MB

Electric properties:
Dipole moment                           ... YES
Quadrupole moment                       ...  NO
Static polarizability (Dipole/Dipole)   ...  NO
Static polarizability (Dipole/Quad.)    ...  NO
Static polarizability (Quad./Quad.)     ...  NO
Static polarizability (Velocity)        ...  NO

Atomic electric properties:
Dipole moment                           ...  NO
Quadrupole moment                       ...  NO
Static polarizability                   ...  NO

Choice of electric origin               ... Center of mass
Position of electric origin             ...    -1.062745    -0.455072    -0.893569

General magnetic properties:
Magnetizability                         ...  NO

EPR properties:
g-Tensor (aka g-matrix)                 ...  NO
Zero-Field splitting spin-orbit         ...  NO
Zero-field splitting spin-spin          ...  NO
Hyperfine couplings                     ...  NO (   0 nuclei)
Quadrupole couplings                    ...  NO (   0 nuclei)
Contact density                         ...  NO (   0 nuclei)

NMR properties:
Chemical shifts                         ...  NO (   0 nuclei)
Spin-rotation constants                 ...  NO (   0 nuclei)
Spin-spin couplings                     ...  NO (   0 nuclei,    0 pairs)

Choice of magnetic origin               ... GIAO
Position of magnetic origin             ...     0.000000     0.000000     0.000000

Properties with geometric perturbations:
SCF Hessian                             ...  NO
IR spectrum                             ...  NO
VCD spectrum                            ...  NO
X-ray spectroscopy properties:
SCF XES/XAS/RIXS spectra                ...  NO


-------------
DIPOLE MOMENT
-------------

Method             : SCF
Type of density    : Electron Density
Multiplicity       :   1
Irrep              :   0
Energy             :  -306.4093040509881689 Eh
Relativity type    : 
Basis              : AO
                                X                 Y                 Z
Electronic contribution:     -2.157590491       0.747090448      -0.188120246
Nuclear contribution   :      2.775033881      -1.104516922       0.359780835
                        -----------------------------------------
Total Dipole Moment    :      0.617443390      -0.357426474       0.171660589
                        -----------------------------------------
Magnitude (a.u.)       :      0.733796553
Magnitude (Debye)      :      1.865162612



--------------------
Rotational spectrum 
--------------------
 
Rotational constants in cm-1:             0.314546             0.074915             0.061203 
Rotational constants in MHz :          9429.842278          2245.903647          1834.808631 

Dipole components along the rotational axes: 
x,y,z [a.u.] :     0.010357     0.733723     0.000299 
x,y,z [Debye]:     0.026326     1.864977     0.000759 

 

Dipole moment calculation done in   0.1 sec 

Maximum memory used throughout the entire PROP-calculation: 10.4 MB

--------------------------------
SUGGESTED CITATIONS FOR THIS RUN
--------------------------------

Below you find a list of papers that are relevant to this ORCA run
We neither can nor want to force you to cite these papers, but we appreciate if you do
You receive ORCA, which is the product of decades of hard work by many enthusiastic individuals, for free
The only thing we kindly ask in return is that you cite our papers,
We deeply appreciate it, if you show your appreciation for ORCA by not just citing the generic ORCA reference.

Please note that relegating all ORCA citations to the supporting information does *not* help us.
SI sections are not indexed - citations you put there will not count into any citation statistics
But we need these citations in order to attract the funding resources that allow us to do what we are doing

Therefore, if you are a happy ORCA user, please consider citing a few of the papers listed below in the main body of your paper

In addition to the list printed below, the program has created the file CS_PdOAc_010_sp_02.bibtex that contains the list in bibtex format
You can import this file easily into all common literature databanks and citation aid programs


List of essential papers. We consider these as the minimum necessary citations

  1. Neese,F.
     Software update: the ORCA program system, version 5.0
     WIRES Comput. Molec. Sci., 2022 12(1)e1606
     doi.org/10.1002/wcms.1606

List of papers to cite with high priority. The work reported in these papers was absolutely
necessary for this run to complete.
Our perspective: the developers of density functionals and basis sets usually get cited in chemistry papers
Good! But without the algorithms to do something with them, the functionals or basis sets would not do anything.
Hence, in our opinion, the algorithm design and method developments papers are equally worthy of getting cited

  1. Neese,F.
     An improvement of the resolution of the identity approximation for the formation of the Coulomb matrix
     J. Comp. Chem., 2003 24(14)1740-1747
     doi.org/10.1002/jcc.10318
  2. Neese,F.; Wennmohs,F.; Hansen,A.; Becker,U.
     Efficient, approximate and parallel Hartree-Fock and hybrid DFT calculations. A 'chain-of-spheres' algorithm for the Hartree-Fock exchange
     Chem. Phys., 2009 356(1-3)98-109
     doi.org/10.1016/j.chemphys.2008.10.036
  3. Helmich-Paris,B.; de Souza,B.; Neese,F.; Izsák,R.
     An improved chain of spheres for exchange algorithm
     J. Chem. Phys., 2021 155 104109
     doi.org/doi: 10.1063/5.0058766.
  4. Neese,F.
     The SHARK Integral Generation and Digestion System
     J. Comp. Chem., 2022  1-16
     doi.org/10.1002/jcc.26942
  5. Lehtola,S.; Steigemann,C.; Oliveira,M.; Marques,M.
     Recent developments in Libxc - A comprehensive library of functionals for density functional theory
     Software X, 2018 7 
     doi.org/10.1016/j.softx.2017.11.002
  6. Grimme,S.; Antony,J.; Ehrlich,S.; Krieg,H.
     A consistent and accurate ab initio parametrization of density functional dispersion correction (DFT-D) for the 94 elements H-Pu
     J. Chem. Phys., 2010 132 154104-XXXX
     doi.org/10.1063/1.3382344
  7. Grimme,S.; Ehrlich,S.; Goerigk,L.
     Effect of the damping function in dispersion corrected density functional theory
     J. Comput. Chem., 2011 32(7)1456-1465
     doi.org/10.1002/jcc.21759
  8. Bursch,M.; Neugebauer,H.; Ehlert,S.; Grimme,S.
     Dispersion corrected r2SCAN based global hybrid functionals: r2SCANh, r2SCAN0, and r2SCAN50
     J. Phys. Chem., 2022 156(13)134105
     doi.org/10.1063/5.0086040

List of suggested additional citations. These are papers that are important in the 'surrounding' of 
of this run, or papers that preceded the highly important papers. If you like your results we are grateful for a citation.

  1. Izsak,R.; Neese,F.
     An overlap fitted chain of spheres exchange method
     J. Chem. Phys., 2011 135 144105
     doi.org/10.1063/1.3646921
  2. Izsak,R.; Hansen,A.; Neese,F.
     The resolution of identity and chain of spheres approximations for the LPNO-CCSD singles Fock term
     Molec. Phys., 2012 110 2413-2417
     doi.org/10.1080/00268976.2012.687466
  3. Neese,F.
     The ORCA program system
     WIRES Comput. Molec. Sci., 2012 2(1)73-78
     doi.org/10.1002/wcms.81
  4. Izsak,R.; Neese,F.; Klopper,W.
     Robust fitting techniques in the chain of spheres approximation to the Fock exchange: The role of the complementary space
     J. Chem. Phys., 2013 139 
     doi.org/10.1063/1.4819264
  5. Neese,F.
     Software update: the ORCA program system, version 4.0
     WIRES Comput. Molec. Sci., 2018 8(1)1-6
     doi.org/10.1002/wcms.1327
  6. Neese,F.; Wennmohs,F.; Becker,U.; Riplinger,C.
     The ORCA quantum chemistry program package
     J. Chem. Phys., 2020 152 Art. No. L224108
     doi.org/10.1063/5.0004608
  7. Wittmann,L.; Neugebauer,H.; Grimme,S.; Bursch,M.
     Dispersion-corrected r2SCAN based double-hybrid functionals
     J. Chem. Phys., 2023 159(22)224103
     doi.org/10.1063/5.0174988

List of optional additional citations

  1. Neese,F.
     Approximate second-order SCF convergence for spin unrestricted wavefunctions
     Chem. Phys. Lett., 2000 325(1-3)93-98
     doi.org/10.1016/s0009-2614(00)00662-x

Timings for individual modules:

Sum of individual times          ...       68.261 sec (=   1.138 min)
Startup calculation              ...        4.290 sec (=   0.072 min)   6.3 %
SCF iterations                   ...       62.242 sec (=   1.037 min)  91.2 %
Property calculations            ...        1.729 sec (=   0.029 min)   2.5 %
                             ****ORCA TERMINATED NORMALLY****
TOTAL RUN TIME: 0 days 0 hours 1 minutes 11 seconds 129 msec
