
                                 *****************
                                 * O   R   C   A *
                                 *****************

                                            #,                                       
                                            ###                                      
                                            ####                                     
                                            #####                                    
                                            ######                                   
                                           ########,                                 
                                     ,,################,,,,,                         
                               ,,#################################,,                 
                          ,,##########################################,,             
                       ,#########################################, ''#####,          
                    ,#############################################,,   '####,        
                  ,##################################################,,,,####,       
                ,###########''''           ''''###############################       
              ,#####''   ,,,,##########,,,,          '''####'''          '####       
            ,##' ,,,,###########################,,,                        '##       
           ' ,,###''''                  '''############,,,                           
         ,,##''                                '''############,,,,        ,,,,,,###''
      ,#''                                            '''#######################'''  
     '                                                          ''''####''''         
             ,#######,   #######,   ,#######,      ##                                
            ,#'     '#,  ##    ##  ,#'     '#,    #''#        ,####,   ,####,        
            ##       ##  ##   ,#'  ##            #'  '#       #'       #'  '#        
            ##       ##  #######   ##           ,######,      #####,   #    #        
            '#,     ,#'  ##    ##  '#,     ,#' ,#      #,     #,   #   #,  ,#        
             '#######'   ##     ##  '#######'  #'      '#     '####' # '####'        



                #########################################################
                #                        -***-                          #
                #          Department of theory and spectroscopy        #
                #                                                       #
                #                      Frank Neese                      #
                #                                                       #
                #     Directorship, Architecture, Infrastructure        #
                #                    SHARK, DRIVERS                     #
                #        Core code/Algorithms in most modules           #
                #                                                       #
                #        Max Planck Institute fuer Kohlenforschung      #
                #                Kaiser Wilhelm Platz 1                 #
                #                 D-45470 Muelheim/Ruhr                 #
                #                      Germany                          #
                #                                                       #
                #                  All rights reserved                  #
                #                        -***-                          #
                #########################################################


                         Program Version 6.0.0  -   RELEASE  -


 With contributions from (in alphabetic order):
   Daniel Aravena         : Magnetic Suceptibility
   Michael Atanasov       : Ab Initio Ligand Field Theory (pilot matlab implementation)
   Alexander A. Auer      : GIAO ZORA, VPT2 properties, NMR spectrum
   Ute Becker             : All parallelization in ORCA, NUMFREQ, NUMCALC
   Giovanni Bistoni       : ED, misc. LED, open-shell LED, HFLD
   Martin Brehm           : Molecular dynamics
   Dmytro Bykov           : pre 5.0 version of the SCF Hessian
   Marcos Casanova-Páez   : Triplet and SCS-CIS(D). UHF-(DLPNO)-IP/EA/STEOM-CCSD. UHF-CVS-IP/STEOM-CCSD
   Vijay G. Chilkuri      : MRCI spin determinant printing, contributions to CSF-ICE
   Pauline Colinet        : FMM embedding
   Dipayan Datta          : RHF DLPNO-CCSD density
   Achintya Kumar Dutta   : EOM-CC, STEOM-CC
   Nicolas Foglia         : Exact transition moments, OPA infrastructure, MCD improvements
   Dmitry Ganyushin       : Spin-Orbit,Spin-Spin,Magnetic field MRCI
   Miquel Garcia          : C-PCM and meta-GGA Hessian, CCSD/C-PCM, Gaussian charge scheme
   Tiago L. C. Gouveia    : GS-ROHF, GS-ROCIS
   Yang Guo               : DLPNO-NEVPT2, F12-NEVPT2, CIM, IAO-localization
   Andreas Hansen         : Spin unrestricted coupled pair/coupled cluster methods
   Ingolf Harden          : AUTO-CI MPn and infrastructure 
   Benjamin Helmich-Paris : MC-RPA, TRAH-(SCF,CASSCF), AVAS, COSX integrals, SCF dyn. polar.
   Lee Huntington         : MR-EOM, pCC
   Robert Izsak           : Overlap fitted RIJCOSX, COSX-SCS-MP3, EOM
   Riya Kayal             : Wick's Theorem for AUTO-CI, AUTO-CI UHF-CCSDT
   Emily Kempfer          : AUTO-CI, RHF CISDT and CCSDT
   Christian Kollmar      : KDIIS, OOCD, Brueckner-CCSD(T), CCSD density, CASPT2, CASPT2-K, improved NEVPT2
   Axel Koslowski         : Symmetry handling
   Simone Kossmann        : Meta GGA functionals, TD-DFT gradient, OOMP2, (MP2 Hessian; deprecated post 5.0)
   Lucas Lang             : DCDCAS
   Marvin Lechner         : AUTO-CI (C++ implementation), FIC-MRCC
   Spencer Leger          : CASSCF response
   Dagmar Lenk            : GEPOL surface, SMD, ORCA-2-JSON
   Dimitrios Liakos       : Extrapolation schemes; Compound Job, initial MDCI parallelization
   Dimitrios Manganas     : Further ROCIS development; embedding schemes. LFT, Crystal Embedding
   Dimitrios Pantazis     : SARC Basis sets
   Anastasios Papadopoulos: AUTO-CI, single reference methods and gradients
   Taras Petrenko         : pre 6.0 DFT Hessian and TD-DFT gradient, (ASA, deprecated), ECA, 1-Electron XAS/XES, NRVS
   Peter Pinski           : DLPNO-MP2, DLPNO-MP2 Gradient
   Christoph Reimann      : Effective Core Potentials
   Marius Retegan         : Local ZFS, SOC
   Christoph Riplinger    : Optimizer, TS searches, QM/MM, DLPNO-CCSD(T), (RO)-DLPNO pert. Triples
   Michael Roemelt        : Original ROCIS implementation
   Masaaki Saitow         : Open-shell DLPNO-CCSD energy and density
   Barbara Sandhoefer     : DKH picture change effects
   Kantharuban Sivalingam : CASSCF convergence/infrastructure, NEVPT2 and variants, FIC-MRCI
   Bernardo de Souza      : ESD, SOC TD-DFT
   Georgi Stoychev        : AutoAux, RI-MP2 NMR, DLPNO-MP2 response, X2C
   Van Anh Tran           : RI-MP2 g-tensors
   Willem Van den Heuvel  : Paramagnetic NMR
   Zikuan Wang            : NOTCH, Electric field optimization 
   Frank Wennmohs         : Technical directorship and infrastructure
   Hang Xu                : AUTO-CI-Response properties 


 We gratefully acknowledge several colleagues who have allowed us to
 interface, adapt or use parts of their codes:
   Stefan Grimme, W. Hujo, H. Kruse, P. Pracht,  : VdW corrections, initial TS optimization,
                  C. Bannwarth, S. Ehlert,         DFT functionals, gCP, sTDA/sTD-DF
                  L. Wittmann, M. Mueller
   Ed Valeev, F. Pavosevic, A. Kumar             : LibInt (2-el integral package), F12 methods
   Garnet Chan, S. Sharma, J. Yang, R. Olivares  : DMRG
   Ulf Ekstrom                                   : XCFun DFT Library
   Mihaly Kallay                                 : mrcc  (arbitrary order and MRCC methods)
   Frank Weinhold                                : gennbo (NPA and NBO analysis)
   Simon Mueller                                 : openCOSMO-RS
   Christopher J. Cramer and Donald G. Truhlar   : smd solvation model
   Lars Goerigk                                  : TD-DFT with DH, B97 family of functionals
   V. Asgeirsson, H. Jonsson                     : NEB implementation
   FAccTs GmbH                                   : IRC, NEB, NEB-TS, DLPNO-Multilevel, CI-OPT
                                                   MM, QMMM, 2- and 3-layer-ONIOM, Crystal-QMMM,
                                                   LR-CPCM, SF, NACMEs, symmetry and pop. for TD-DFT,
                                                   nearIR, NL-DFT gradient (VV10), updates on ESD,
                                                   ML-optimized integration grids, MBIS, APM,
                                                   GOAT, DOCKER, SOLVATOR, interface openCOSMO-RS
   S Lehtola, MJT Oliveira, MAL Marques          : LibXC Library
   Liviu Ungur et al                             : ANISO software


 Your calculation uses the libint2 library for the computation of 2-el integrals
 For citations please refer to: http://libint.valeyev.net

 Your ORCA version has been built with support for libXC version: 6.2.2
 For citations please refer to: https://libxc.gitlab.io

 This ORCA versions uses:
   CBLAS   interface :  Fast vector & matrix operations
   LAPACKE interface :  Fast linear algebra routines
   SCALAPACK package :  Parallel linear algebra routines
   Shared memory     :  Shared parallel matrices
   BLAS/LAPACK       :  OpenBLAS 0.3.27  USE64BITINT DYNAMIC_ARCH NO_AFFINITY Sandybridge SINGLE_THREADED
        Core in use  :  Sandybridge
   Copyright (c) 2011-2014, The OpenBLAS Project


NOTE: MaxCore=3500 MB was set to SCF,MP2,MDCI,CIPSI,MRCI and CIS
      => If you want to overwrite this, your respective input block should be placed after the MaxCore statement
Your calculation utilizes the atom-pairwise dispersion correction
with the Becke-Johnson damping scheme (D3BJ)


Warning: RI is on but no J-basis has been assigned. Assigning Def2/J (nothing to worry about!)
================================================================================

cite the ECPs for Pd [Def2-ECP] as follows:
Ce-Yb(ecp-28): M. Dolg, H. Stoll, H.Preuss, J. Chem. Phys., 1989, 90, 1730-1734.
Y-Cd(ecp-28), Hf-Hg(ecp-46): D. Andrae,U. Haeussermann, M. Dolg, H. Stoll, H. Preuss, Theor. Chim. Acta, 1990, 77, 123-141.
In-Sb(ecp-28), Tl-Bi(ecp-46): B. Metz, H. Stoll, M. Dolg, J. Chem. Phys., 2000, 113, 2563-2569.
Te-Xe(ecp-28), Po-Rn(ecp-46): K. A. Peterson, D. Figgen, E. Goll, H. Stoll, M. Dolg, J. Chem. Phys., 2003, 119, 11113-11123.
Rb(ecp-28), Cs(ecp-46): T. Leininger, A. Nicklass, W. Kuechle, H. Stoll, M. Dolg, A. Bergner, Chem. Phys. Lett., 1996, 255, 274-280.
Sr(ecp-28), Ba(ecp-46): M. Kaupp, P. V. Schleyer, H. Stoll and H. Preuss, J. Chem. Phys., 1991, 94, 1360-1366.
La(ecp-46): M. Dolg, H. Stoll, A. Savin, H. Preuss, Theor. Chim. Acta, 1989, 75, 173-194.
Lu(ecp-28): X. Cao, M. Dolg, J. Chem. Phys., 2001, 115, 7348-7355.

ECP parameters for Pd [Def2-ECP] have been obtained from:
TURBOMOLE (7.0.2)

----- Orbital basis set information -----
Your calculation utilizes the basis: def2-SV(P)
   F. Weigend and R. Ahlrichs, Phys. Chem. Chem. Phys. 7, 3297 (2005).

----- AuxJ basis set information -----
Your calculation utilizes the auxiliary basis: def2/J
   F. Weigend, Phys. Chem. Chem. Phys. 8, 1057 (2006).

================================================================================
                                        WARNINGS
                       Please study these warnings very carefully!
================================================================================


WARNING: Geometry Optimization
  ===> : Switching off AutoStart
         For restart on a previous wavefunction, please use MOREAD

================================================================================
                                       INPUT FILE
================================================================================
NAME = CS_PdOAc_001_opt_01.inp
|  1> !PBE0 def2-SV(p) opt d3 TightSCF SlowConv RIJCOSX defgrid2
|  2> 
|  3> %pal
|  4> nprocs 16
|  5> end
|  6> 
|  7> %scf
|  8> MaxIter 1500
|  9> end
| 10> 
| 11> %maxcore 3500
| 12> 
| 13>  
| 14> 
| 15> * xyz 0 1
| 16> 46      -0.726746000     -1.739728000     -0.001766000
| 17> 46      -1.143188000      1.497963000     -0.003685000
| 18> 46       1.871679000      0.239596000      0.004738000
| 19> 8        0.472973000     -2.472078000      1.465927000
| 20> 8        0.481886000     -2.476417000     -1.459979000
| 21> 8       -2.101809000     -1.402634000      1.455494000
| 22> 8       -2.091344000     -1.396577000     -1.468359000
| 23> 8       -2.360395000      0.832011000     -1.488643000
| 24> 8       -0.143513000      2.527236000     -1.444928000
| 25> 8       -2.411671000      0.820245000      1.433076000
| 26> 8       -0.188041000      2.501698000      1.482989000
| 27> 8        1.897813000      1.672253000      1.448979000
| 28> 8        2.248882000     -1.098587000      1.486870000
| 29> 8        2.281204000     -1.134250000     -1.435379000
| 30> 8        1.914308000      1.630598000     -1.476541000
| 31> 6       -2.600113000     -0.331130000     -1.894925000
| 32> 6       -2.638838000     -0.340583000      1.853740000
| 33> 6        1.588091000     -2.085364000      1.893697000
| 34> 6        1.614754000     -2.110860000     -1.857815000
| 35> 6        1.033211000      2.432100000     -1.872330000
| 36> 6        1.001660000      2.438780000      1.879117000
| 37> 6       -3.580119000     -0.465891000     -3.031658000
| 38> 1       -4.186037000      0.430490000     -3.122110000
| 39> 1       -3.010210000     -0.606044000     -3.951328000
| 40> 1       -4.201962000     -1.345034000     -2.882170000
| 41> 6        1.410977000      3.358539000     -2.998750000
| 42> 1        0.982713000      4.343085000     -2.826544000
| 43> 1        2.490208000      3.414609000     -3.103218000
| 44> 1        0.982048000      2.959659000     -3.919030000
| 45> 6        2.229661000     -2.905515000     -2.980453000
| 46> 1        2.023309000     -2.379147000     -3.913591000
| 47> 1        3.307615000     -2.958756000     -2.851621000
| 48> 1        1.791273000     -3.897690000     -3.031285000
| 49> 6        2.178784000     -2.875689000      3.032209000
| 50> 1        1.960300000     -3.932819000      2.904414000
| 51> 1        3.248489000     -2.702476000      3.101604000
| 52> 1        1.703980000     -2.538900000      3.955107000
| 53> 6       -3.639610000     -0.462925000      2.973408000
| 54> 1       -4.030650000     -1.474440000      3.027633000
| 55> 1       -3.124937000     -0.231640000      3.907263000
| 56> 1       -4.439497000      0.260619000      2.838780000
| 57> 6        1.392581000      3.356981000      3.007912000
| 58> 1        1.405534000      2.771244000      3.928116000
| 59> 1        2.394782000      3.743762000      2.839892000
| 60> 1        0.674134000      4.164612000      3.109918000
| 61> *
| 62> 
| 63>                          ****END OF INPUT****
================================================================================

                       *****************************
                       * Geometry Optimization Run *
                       *****************************

Geometry optimization settings:
Update method            Update   .... BFGS
Choice of coordinates    CoordSys .... (2022) Redundant Internals
Initial Hessian          InHess   .... Almloef's Model
Max. no of cycles        MaxIter  .... 135

Convergence Tolerances:
Energy Change            TolE     ....  5.0000e-06 Eh
Max. Gradient            TolMAXG  ....  3.0000e-04 Eh/bohr
RMS Gradient             TolRMSG  ....  1.0000e-04 Eh/bohr
Max. Displacement        TolMAXD  ....  4.0000e-03 bohr
RMS Displacement         TolRMSD  ....  2.0000e-03 bohr
Strict Convergence                .... False

------------------------------------------------------------------------------
                        ORCA OPTIMIZATION COORDINATE SETUP
------------------------------------------------------------------------------

The optimization will be done in redundant internal coordinates (2022)
Making redundant internal coordinates   ...  (2022 redundants) done
Evaluating the initial hessian          ...  (Almloef) done
Evaluating the coordinates              ...  done
Calculating the B-matrix                .... done
Calculating the G-matrix                .... done
Diagonalizing the G-matrix              .... done
Small eigenvalue found = 2.210e-02
Small eigenvalue found = 2.494e-02
Small eigenvalue found = 2.593e-02
Small eigenvalue found = 2.606e-02
Small eigenvalue found = 2.690e-02
Small eigenvalue found = 2.700e-02
The first mode is                       ....  177
The number of degrees of freedom        ....  129

    -----------------------------------------------------------------
                    Redundant Internal Coordinates


    -----------------------------------------------------------------
         Definition                    Initial Value    Approx d2E/dq
    -----------------------------------------------------------------
      1. B(Pd  1,Pd  0)                  3.2644         0.065397   
      2. B(Pd  2,Pd  0)                  3.2664         0.064902   
      3. B(Pd  2,Pd  1)                  3.2670         0.064778   
      4. B(O   3,Pd  0)                  2.0322         0.535096   
      5. B(O   4,Pd  0)                  2.0322         0.535046   
      6. B(O   5,Pd  0)                  2.0318         0.535942   
      7. B(O   6,Pd  0)                  2.0324         0.534617   
      8. B(O   7,Pd  1)                  2.0323         0.534902   
      9. B(O   8,Pd  1)                  2.0337         0.532131   
     10. B(O   9,Pd  1)                  2.0329         0.533720   
     11. B(O  10,Pd  1)                  2.0322         0.534997   
     12. B(O  11,Pd  2)                  2.0345         0.530650   
     13. B(O  12,Pd  2)                  2.0322         0.535122   
     14. B(O  13,Pd  2)                  2.0320         0.535427   
     15. B(O  14,Pd  2)                  2.0325         0.534561   
     16. B(C  15,O   7)                  1.2552         0.918341   
     17. B(C  15,O   6)                  1.2554         0.917596   
     18. B(C  16,O   9)                  1.2554         0.917457   
     19. B(C  16,O   5)                  1.2550         0.918979   
     20. B(C  17,O  12)                  1.2553         0.917730   
     21. B(C  17,O   3)                  1.2554         0.917540   
     22. B(C  18,O  13)                  1.2555         0.917068   
     23. B(C  18,O   4)                  1.2551         0.918518   
     24. B(C  19,O  14)                  1.2551         0.918395   
     25. B(C  19,O   8)                  1.2555         0.917031   
     26. B(C  20,O  11)                  1.2553         0.918011   
     27. B(C  20,O  10)                  1.2555         0.917216   
     28. B(C  21,C  15)                  1.5069         0.406667   
     29. B(H  22,C  21)                  1.0857         0.365789   
     30. B(H  23,C  21)                  1.0910         0.358809   
     31. B(H  24,C  21)                  1.0872         0.363870   
     32. B(C  25,C  19)                  1.5066         0.407121   
     33. B(H  26,C  25)                  1.0874         0.363582   
     34. B(H  27,C  25)                  1.0857         0.365801   
     35. B(H  28,C  25)                  1.0909         0.358949   
     36. B(C  29,C  18)                  1.5066         0.407079   
     37. B(H  30,C  29)                  1.0911         0.358713   
     38. B(H  31,C  29)                  1.0869         0.364184   
     39. B(H  32,C  29)                  1.0859         0.365565   
     40. B(C  33,C  17)                  1.5066         0.407160   
     41. B(H  34,C  33)                  1.0870         0.364077   
     42. B(H  35,C  33)                  1.0859         0.365621   
     43. B(H  36,C  33)                  1.0911         0.358583   
     44. B(C  37,C  16)                  1.5067         0.406948   
     45. B(H  38,C  37)                  1.0858         0.365666   
     46. B(H  39,C  37)                  1.0911         0.358668   
     47. B(H  40,C  37)                  1.0869         0.364158   
     48. B(C  41,C  20)                  1.5067         0.406986   
     49. B(H  42,C  41)                  1.0909         0.358931   
     50. B(H  43,C  41)                  1.0873         0.363680   
     51. B(H  44,C  41)                  1.0857         0.365775   
     52. A(Pd  1,Pd  0,O   6)           75.3132         0.385010   
     53. A(Pd  2,Pd  0,O   6)          115.6728         0.384502   
     54. A(O   4,Pd  0,O   6)           86.7173         0.514483   
     55. A(Pd  1,Pd  0,O   3)          115.6688         0.385070   
     56. A(O   4,Pd  0,O   5)          167.7712         0.514721   
     57. A(Pd  1,Pd  0,O   4)          115.7849         0.385064   
     58. A(Pd  1,Pd  0,O   5)           75.4944         0.385176   
     59. A(Pd  2,Pd  0,O   3)           75.3632         0.384562   
     60. A(O   5,Pd  0,O   6)           92.0140         0.514644   
     61. A(Pd  2,Pd  0,O   5)          115.8753         0.384667   
     62. A(Pd  2,Pd  0,O   4)           75.4031         0.384555   
     63. A(O   3,Pd  0,O   5)           86.6364         0.514730   
     64. A(O   3,Pd  0,O   6)          168.0619         0.514492   
     65. A(Pd  1,Pd  0,Pd  2)           60.0315         0.294619   
     66. A(O   3,Pd  0,O   4)           92.0909         0.514569   
     67. A(Pd  0,Pd  1,O   7)           75.6306         0.385046   
     68. A(Pd  2,Pd  1,O  10)           75.7960         0.384421   
     69. A(O   7,Pd  1,O   9)           91.9169         0.514295   
     70. A(Pd  0,Pd  1,O  10)          115.4347         0.385058   
     71. A(O   9,Pd  1,O  10)           86.6119         0.514312   
     72. A(Pd  2,Pd  1,O   9)          116.4618         0.384262   
     73. A(O   7,Pd  1,O   8)           86.6998         0.514008   
     74. A(Pd  0,Pd  1,O   9)           75.4357         0.384898   
     75. A(Pd  2,Pd  1,O   7)          115.3651         0.384409   
     76. A(Pd  2,Pd  1,O   8)           75.1165         0.384062   
     77. A(Pd  0,Pd  1,O   8)          116.0835         0.384698   
     78. A(O   8,Pd  1,O   9)          167.5042         0.513796   
     79. A(O   7,Pd  1,O  10)          167.9245         0.514525   
     80. A(O   8,Pd  1,O  10)           92.1452         0.514025   
     81. A(Pd  0,Pd  1,Pd  2)           60.0157         0.294530   
     82. A(Pd  0,Pd  2,Pd  1)           59.9528         0.294177   
     83. A(O  13,Pd  2,O  14)           86.6734         0.514541   
     84. A(O  12,Pd  2,O  14)          168.0490         0.514486   
     85. A(Pd  1,Pd  2,O  14)           75.7509         0.384367   
     86. A(Pd  0,Pd  2,O  14)          115.4643         0.384495   
     87. A(O  12,Pd  2,O  13)           91.9639         0.514642   
     88. A(O  11,Pd  2,O  13)          167.5873         0.513835   
     89. A(Pd  1,Pd  2,O  13)          116.3963         0.384475   
     90. A(Pd  0,Pd  2,O  13)           75.4764         0.384603   
     91. A(O  11,Pd  2,O  12)           86.7657         0.513780   
     92. A(Pd  1,Pd  2,O  12)          115.2655         0.384437   
     93. A(O  11,Pd  2,O  14)           92.0149         0.513679   
     94. A(Pd  0,Pd  2,O  12)           75.5275         0.384565   
     95. A(Pd  1,Pd  2,O  11)           75.0748         0.383876   
     96. A(Pd  0,Pd  2,O  11)          115.9984         0.384004   
     97. A(Pd  0,O   3,C  17)          131.2598         0.504320   
     98. A(Pd  0,O   4,C  18)          131.1990         0.504411   
     99. A(Pd  0,O   5,C  16)          131.1189         0.504616   
    100. A(Pd  0,O   6,C  15)          131.3447         0.504241   
    101. A(Pd  1,O   7,C  15)          130.8867         0.504368   
    102. A(Pd  1,O   8,C  19)          131.5741         0.503746   
    103. A(Pd  1,O   9,C  16)          131.1464         0.504069   
    104. A(Pd  1,O  10,C  20)          130.6495         0.504269   
    105. A(Pd  2,O  11,C  20)          131.6137         0.503584   
    106. A(Pd  2,O  12,C  17)          131.0165         0.504344   
    107. A(Pd  2,O  13,C  18)          131.0999         0.504329   
    108. A(Pd  2,O  14,C  19)          130.7024         0.504313   
    109. A(O   6,C  15,O   7)          126.8052         0.494394   
    110. A(O   7,C  15,C  21)          116.8244         0.428997   
    111. A(O   6,C  15,C  21)          116.3587         0.428935   
    112. A(O   5,C  16,O   9)          126.7801         0.494444   
    113. A(O   9,C  16,C  37)          116.3768         0.428976   
    114. A(O   5,C  16,C  37)          116.8292         0.429104   
    115. A(O   3,C  17,O  12)          126.8181         0.494328   
    116. A(O  12,C  17,C  33)          116.8001         0.429039   
    117. A(O   3,C  17,C  33)          116.3705         0.429023   
    118. A(O   4,C  18,O  13)          126.7993         0.494359   
    119. A(O  13,C  18,C  29)          116.3806         0.428969   
    120. A(O   4,C  18,C  29)          116.8050         0.429090   
    121. A(O   8,C  19,O  14)          126.7955         0.494343   
    122. A(O  14,C  19,C  25)          116.8990         0.429088   
    123. A(O   8,C  19,C  25)          116.2902         0.428973   
    124. A(O  10,C  20,O  11)          126.7977         0.494323   
    125. A(O  11,C  20,C  41)          116.3361         0.429030   
    126. A(O  10,C  20,C  41)          116.8530         0.428963   
    127. A(H  23,C  21,H  24)          108.1089         0.291151   
    128. A(H  22,C  21,H  24)          111.0923         0.292035   
    129. A(C  15,C  21,H  24)          109.9123         0.329449   
    130. A(H  22,C  21,H  23)          109.1087         0.291392   
    131. A(C  15,C  21,H  23)          107.9184         0.328688   
    132. A(C  15,C  21,H  22)          110.6068         0.329736   
    133. A(H  27,C  25,H  28)          109.1813         0.291412   
    134. A(H  26,C  25,H  28)          108.0480         0.291133   
    135. A(C  19,C  25,H  28)          107.8967         0.328770   
    136. A(H  26,C  25,H  27)          111.0985         0.292000   
    137. A(C  19,C  25,H  27)          110.6672         0.329798   
    138. A(C  19,C  25,H  26)          109.8531         0.329467   
    139. A(H  31,C  29,H  32)          111.1720         0.292046   
    140. A(H  30,C  29,H  32)          108.9299         0.291352   
    141. A(C  18,C  29,H  32)          110.6115         0.329758   
    142. A(H  30,C  29,H  31)          108.2144         0.291179   
    143. A(C  18,C  29,H  31)          110.0160         0.329551   
    144. A(C  18,C  29,H  30)          107.7966         0.328729   
    145. A(H  35,C  33,H  36)          108.9885         0.291342   
    146. A(H  34,C  33,H  36)          108.1887         0.291149   
    147. A(C  17,C  33,H  36)          107.8573         0.328720   
    148. A(H  34,C  33,H  35)          111.1402         0.292040   
    149. A(C  17,C  33,H  35)          110.5400         0.329777   
    150. A(C  17,C  33,H  34)          110.0303         0.329546   
    151. A(H  39,C  37,H  40)          108.1819         0.291170   
    152. A(H  38,C  37,H  40)          111.1784         0.292056   
    153. A(C  16,C  37,H  40)          110.0415         0.329530   
    154. A(H  38,C  37,H  39)          108.9416         0.291359   
    155. A(C  16,C  37,H  39)          107.7888         0.328704   
    156. A(C  16,C  37,H  38)          110.6070         0.329755   
    157. A(H  43,C  41,H  44)          111.0897         0.292009   
    158. A(H  42,C  41,H  44)          109.1479         0.291406   
    159. A(C  20,C  41,H  44)          110.6108         0.329776   
    160. A(H  42,C  41,H  43)          108.0838         0.291143   
    161. A(C  20,C  41,H  43)          109.8868         0.329464   
    162. A(C  20,C  41,H  42)          107.9287         0.328749   
    163. D(O   7,Pd  1,Pd  0,O   4)     78.1629         0.001504   
    164. D(Pd  2,Pd  1,Pd  0,O   3)     53.0764         0.001504   
    165. D(Pd  2,Pd  1,Pd  0,O   5)    132.0314         0.001504   
    166. D(O   7,Pd  1,Pd  0,Pd  2)    131.1754         0.001504   
    167. D(Pd  2,Pd  1,Pd  0,O   4)    -53.0125         0.001504   
    168. D(O   7,Pd  1,Pd  0,O   5)    -96.7932         0.001504   
    169. D(O   8,Pd  1,Pd  0,Pd  2)     52.2203         0.001504   
    170. D(O   7,Pd  1,Pd  0,O   3)   -175.7482         0.001504   
    171. D(O   7,Pd  1,Pd  0,O   6)     -0.7465         0.001504   
    172. D(Pd  2,Pd  1,Pd  0,O   6)   -131.9219         0.001504   
    173. D(Pd  1,Pd  2,Pd  0,O   6)     52.9945         0.001504   
    174. D(O  11,Pd  2,Pd  1,O   9)    -80.4057         0.001504   
    175. D(O  11,Pd  2,Pd  1,O  10)     -1.5969         0.001504   
    176. D(O  12,Pd  2,Pd  1,Pd  0)    -53.6825         0.001504   
    177. D(Pd  0,Pd  2,Pd  1,O  10)    131.1113         0.001504   
    178. D(O  11,Pd  2,Pd  1,O   7)    173.4935         0.001504   
    179. D(Pd  0,Pd  2,Pd  1,O   7)    -53.7983         0.001504   
    180. D(Pd  1,Pd  2,Pd  0,O   3)   -131.8657         0.001504   
    181. D(Pd  1,Pd  2,Pd  0,O   4)    131.9931         0.001504   
    182. D(O  11,Pd  2,Pd  1,Pd  0)   -132.7083         0.001504   
    183. D(Pd  0,Pd  2,Pd  1,O   8)   -132.7334         0.001504   
    184. D(Pd  0,Pd  2,Pd  1,O   9)     52.3025         0.001504   
    185. D(O  11,Pd  2,Pd  0,O   6)    105.1768         0.001504   
    186. D(O  11,Pd  2,Pd  0,O   4)   -175.8246         0.001504   
    187. D(O  11,Pd  2,Pd  1,O   8)     94.5583         0.001504   
    188. D(Pd  1,Pd  2,Pd  0,O   5)    -53.0563         0.001504   
    189. D(O  11,Pd  2,Pd  0,O   5)     -0.8740         0.001504   
    190. D(O  11,Pd  2,Pd  0,Pd  1)     52.1823         0.001504   
    191. D(O  11,Pd  2,Pd  0,O   3)    -79.6834         0.001504   
    192. D(O  12,Pd  2,Pd  0,Pd  1)    131.1884         0.001504   
    193. D(C  17,O   3,Pd  0,Pd  1)    -45.1700         0.002907   
    194. D(C  17,O   3,Pd  0,O   6)    158.8739         0.002907   
    195. D(C  17,O   3,Pd  0,Pd  2)      0.5373         0.002907   
    196. D(C  17,O   3,Pd  0,O   5)   -117.3141         0.002907   
    197. D(C  17,O   3,Pd  0,O   4)     74.8624         0.002907   
    198. D(C  18,O   4,Pd  0,O   6)    119.1441         0.002907   
    199. D(C  18,O   4,Pd  0,O   5)   -156.5058         0.002907   
    200. D(C  18,O   4,Pd  0,O   3)    -72.7477         0.002907   
    201. D(C  18,O   4,Pd  0,Pd  2)      1.5403         0.002907   
    202. D(C  18,O   4,Pd  0,Pd  1)     47.1878         0.002907   
    203. D(C  16,O   5,Pd  0,O   6)    -72.6656         0.002912   
    204. D(C  16,O   5,Pd  0,O   4)   -156.4510         0.002912   
    205. D(C  16,O   5,Pd  0,O   3)    119.2093         0.002912   
    206. D(C  16,O   5,Pd  0,Pd  2)     47.2589         0.002912   
    207. D(C  16,O   5,Pd  0,Pd  1)      1.6020         0.002912   
    208. D(C  15,O   6,Pd  0,O   5)     74.9677         0.002905   
    209. D(C  15,O   6,Pd  0,O   4)   -117.2084         0.002905   
    210. D(C  15,O   6,Pd  0,O   3)    158.2207         0.002905   
    211. D(C  15,O   6,Pd  0,Pd  2)    -45.1261         0.002905   
    212. D(C  15,O   6,Pd  0,Pd  1)      0.5316         0.002905   
    213. D(C  15,O   7,Pd  1,O  10)   -155.7235         0.002906   
    214. D(C  15,O   7,Pd  1,O   9)    -72.9745         0.002906   
    215. D(C  15,O   7,Pd  1,O   8)    119.4578         0.002906   
    216. D(C  15,O   7,Pd  1,Pd  2)     47.6417         0.002906   
    217. D(C  15,O   7,Pd  1,Pd  0)      1.4620         0.002906   
    218. D(C  19,O   8,Pd  1,O  10)     76.1559         0.002892   
    219. D(C  19,O   8,Pd  1,O   9)    160.1683         0.002892   
    220. D(C  19,O   8,Pd  1,O   7)   -115.8781         0.002892   
    221. D(C  19,O   8,Pd  1,Pd  2)      1.4650         0.002892   
    222. D(C  19,O   8,Pd  1,Pd  0)    -43.6363         0.002892   
    223. D(C  16,O   9,Pd  1,O   7)     75.4915         0.002900   
    224. D(C  16,O   9,Pd  1,Pd  2)    -44.2076         0.002900   
    225. D(C  16,O   9,Pd  1,Pd  0)      0.8734         0.002900   
    226. D(C  16,O   9,Pd  1,O  10)   -116.5073         0.002900   
    227. D(C  16,O   9,Pd  1,O   8)    158.8770         0.002900   
    228. D(C  20,O  10,Pd  1,O   9)    121.0000         0.002907   
    229. D(C  20,O  10,Pd  1,O   8)    -71.4487         0.002907   
    230. D(C  20,O  10,Pd  1,O   7)   -155.6936         0.002907   
    231. D(C  20,O  10,Pd  1,Pd  2)      2.6118         0.002907   
    232. D(C  20,O  10,Pd  1,Pd  0)     48.8844         0.002907   
    233. D(C  20,O  11,Pd  2,O  14)     76.3314         0.002884   
    234. D(C  20,O  11,Pd  2,O  13)    160.0002         0.002884   
    235. D(C  20,O  11,Pd  2,O  12)   -115.5700         0.002884   
    236. D(C  20,O  11,Pd  2,Pd  1)      1.6549         0.002884   
    237. D(C  20,O  11,Pd  2,Pd  0)    -43.3916         0.002884   
    238. D(C  17,O  12,Pd  2,O  14)   -156.3827         0.002907   
    239. D(C  17,O  12,Pd  2,O  13)    -73.1816         0.002907   
    240. D(C  17,O  12,Pd  2,O  11)    119.1789         0.002907   
    241. D(C  17,O  12,Pd  2,Pd  1)     47.3542         0.002907   
    242. D(C  17,O  12,Pd  2,Pd  0)      1.2731         0.002907   
    243. D(C  18,O  13,Pd  2,O  14)   -116.5631         0.002909   
    244. D(C  18,O  13,Pd  2,O  12)     75.3230         0.002909   
    245. D(C  18,O  13,Pd  2,O  11)    159.1901         0.002909   
    246. D(C  18,O  13,Pd  2,Pd  1)    -44.2672         0.002909   
    247. D(C  18,O  13,Pd  2,Pd  0)      0.8206         0.002909   
    248. D(C  19,O  14,Pd  2,O  13)    120.8041         0.002904   
    249. D(C  19,O  14,Pd  2,O  12)   -155.4442         0.002904   
    250. D(C  19,O  14,Pd  2,O  11)    -71.5528         0.002904   
    251. D(C  19,O  14,Pd  2,Pd  1)      2.4952         0.002904   
    252. D(C  19,O  14,Pd  2,Pd  0)     48.6171         0.002904   
    253. D(C  21,C  15,O   7,Pd  1)    179.5957         0.067374   
    254. D(O   6,C  15,O   7,Pd  1)     -1.7041         0.067374   
    255. D(C  21,C  15,O   6,Pd  0)    179.0196         0.067249   
    256. D(O   7,C  15,O   6,Pd  0)      0.3142         0.067249   
    257. D(C  37,C  16,O   9,Pd  1)    178.5165         0.067226   
    258. D(O   5,C  16,O   9,Pd  1)     -0.0774         0.067226   
    259. D(C  37,C  16,O   5,Pd  0)    179.7599         0.067481   
    260. D(O   9,C  16,O   5,Pd  0)     -1.6518         0.067481   
    261. D(C  33,C  17,O  12,Pd  2)    179.8422         0.067272   
    262. D(O   3,C  17,O  12,Pd  2)     -1.4293         0.067272   
    263. D(C  33,C  17,O   3,Pd  0)    178.8981         0.067240   
    264. D(O  12,C  17,O   3,Pd  0)      0.1649         0.067240   
    265. D(C  29,C  18,O  13,Pd  2)    178.4814         0.067161   
    266. D(O   4,C  18,O  13,Pd  2)     -0.0484         0.067161   
    267. D(C  29,C  18,O   4,Pd  0)    179.8732         0.067403   
    268. D(O  13,C  18,O   4,Pd  0)     -1.6024         0.067403   
    269. D(C  25,C  19,O  14,Pd  2)    178.9798         0.067383   
    270. D(O   8,C  19,O  14,Pd  2)     -2.5062         0.067383   
    271. D(C  25,C  19,O   8,Pd  1)    178.2660         0.067155   
    272. D(O  14,C  19,O   8,Pd  1)     -0.2559         0.067155   
    273. D(C  41,C  20,O  11,Pd  2)    178.1936         0.067319   
    274. D(O  10,C  20,O  11,Pd  2)     -0.4400         0.067319   
    275. D(C  41,C  20,O  10,Pd  1)    178.8367         0.067186   
    276. D(O  11,C  20,O  10,Pd  1)     -2.5359         0.067186   
    277. D(H  24,C  21,C  15,O   6)     39.2456         0.012256   
    278. D(H  23,C  21,C  15,O   7)    100.4019         0.012256   
    279. D(H  23,C  21,C  15,O   6)    -78.4366         0.012256   
    280. D(H  22,C  21,C  15,O   7)    -18.8827         0.012256   
    281. D(H  22,C  21,C  15,O   6)    162.2788         0.012256   
    282. D(H  28,C  25,C  19,O   8)    -77.1505         0.012283   
    283. D(H  27,C  25,C  19,O  14)    -17.8725         0.012283   
    284. D(H  27,C  25,C  19,O   8)    163.4547         0.012283   
    285. D(H  26,C  25,C  19,O  14)   -140.9138         0.012283   
    286. D(H  26,C  25,C  19,O   8)     40.4134         0.012283   
    287. D(H  31,C  29,C  18,O   4)   -145.2380         0.012280   
    288. D(H  30,C  29,C  18,O  13)    -81.7150         0.012280   
    289. D(H  30,C  29,C  18,O   4)     96.9661         0.012280   
    290. D(H  32,C  29,C  18,O   4)    -22.0297         0.012280   
    291. D(H  31,C  29,C  18,O  13)     36.0809         0.012280   
    292. D(H  36,C  33,C  17,O   3)    -80.5891         0.012285   
    293. D(H  35,C  33,C  17,O  12)    -20.7878         0.012285   
    294. D(H  35,C  33,C  17,O   3)    160.3483         0.012285   
    295. D(H  34,C  33,C  17,O  12)   -143.9170         0.012285   
    296. D(H  34,C  33,C  17,O   3)     37.2191         0.012285   
    297. D(H  40,C  37,C  16,O   5)   -144.7098         0.012272   
    298. D(H  39,C  37,C  16,O   9)    -81.2142         0.012272   
    299. D(H  39,C  37,C  16,O   5)     97.5238         0.012272   
    300. D(H  38,C  37,C  16,O   9)    159.7831         0.012272   
    301. D(H  38,C  37,C  16,O   5)    -21.4789         0.012272   
    302. D(H  44,C  41,C  20,O  10)    -18.1144         0.012275   
    303. D(H  43,C  41,C  20,O  11)     40.0969         0.012275   
    304. D(H  43,C  41,C  20,O  10)   -141.1295         0.012275   
    305. D(H  42,C  41,C  20,O  11)    -77.5471         0.012275   
    306. D(H  42,C  41,C  20,O  10)    101.2265         0.012275   
    -----------------------------------------------------------------

Number of atoms                         .... 45
Number of degrees of freedom            .... 306


         *************************************************************
         *                GEOMETRY OPTIMIZATION CYCLE   1            *
         *************************************************************
---------------------------------
CARTESIAN COORDINATES (ANGSTROEM)
---------------------------------
  Pd    -0.726746   -1.739728   -0.001766
  Pd    -1.143188    1.497963   -0.003685
  Pd     1.871679    0.239596    0.004738
  O      0.472973   -2.472078    1.465927
  O      0.481886   -2.476417   -1.459979
  O     -2.101809   -1.402634    1.455494
  O     -2.091344   -1.396577   -1.468359
  O     -2.360395    0.832011   -1.488643
  O     -0.143513    2.527236   -1.444928
  O     -2.411671    0.820245    1.433076
  O     -0.188041    2.501698    1.482989
  O      1.897813    1.672253    1.448979
  O      2.248882   -1.098587    1.486870
  O      2.281204   -1.134250   -1.435379
  O      1.914308    1.630598   -1.476541
  C     -2.600113   -0.331130   -1.894925
  C     -2.638838   -0.340583    1.853740
  C      1.588091   -2.085364    1.893697
  C      1.614754   -2.110860   -1.857815
  C      1.033211    2.432100   -1.872330
  C      1.001660    2.438780    1.879117
  C     -3.580119   -0.465891   -3.031658
  H     -4.186037    0.430490   -3.122110
  H     -3.010210   -0.606044   -3.951328
  H     -4.201962   -1.345034   -2.882170
  C      1.410977    3.358539   -2.998750
  H      0.982713    4.343085   -2.826544
  H      2.490208    3.414609   -3.103218
  H      0.982048    2.959659   -3.919030
  C      2.229661   -2.905515   -2.980453
  H      2.023309   -2.379147   -3.913591
  H      3.307615   -2.958756   -2.851621
  H      1.791273   -3.897690   -3.031285
  C      2.178784   -2.875689    3.032209
  H      1.960300   -3.932819    2.904414
  H      3.248489   -2.702476    3.101604
  H      1.703980   -2.538900    3.955107
  C     -3.639610   -0.462925    2.973408
  H     -4.030650   -1.474440    3.027633
  H     -3.124937   -0.231640    3.907263
  H     -4.439497    0.260619    2.838780
  C      1.392581    3.356981    3.007912
  H      1.405534    2.771244    3.928116
  H      2.394782    3.743762    2.839892
  H      0.674134    4.164612    3.109918

----------------------------
CARTESIAN COORDINATES (A.U.)
----------------------------
  NO LB      ZA    FRAG     MASS         X           Y           Z
   0 Pd   18.0000*   0   106.400   -1.373351   -3.287609   -0.003337
   1 Pd   18.0000*   0   106.400   -2.160312    2.830740   -0.006964
   2 Pd   18.0000*   0   106.400    3.536961    0.452771    0.008954
   3 O     8.0000    0    15.999    0.893789   -4.671550    2.770201
   4 O     8.0000    0    15.999    0.910633   -4.679750   -2.758960
   5 O     8.0000    0    15.999   -3.971843   -2.650594    2.750485
   6 O     8.0000    0    15.999   -3.952067   -2.639148   -2.774796
   7 O     8.0000    0    15.999   -4.460500    1.572273   -2.813128
   8 O     8.0000    0    15.999   -0.271200    4.775784   -2.730518
   9 O     8.0000    0    15.999   -4.557398    1.550038    2.708121
  10 O     8.0000    0    15.999   -0.355346    4.727524    2.802443
  11 O     8.0000    0    15.999    3.586347    3.160100    2.738173
  12 O     8.0000    0    15.999    4.249771   -2.076029    2.809777
  13 O     8.0000    0    15.999    4.310851   -2.143422   -2.712473
  14 O     8.0000    0    15.999    3.617518    3.081384   -2.790258
  15 C     6.0000    0    12.011   -4.913501   -0.625745   -3.580889
  16 C     6.0000    0    12.011   -4.986681   -0.643609    3.503061
  17 C     6.0000    0    12.011    3.001057   -3.940767    3.578569
  18 C     6.0000    0    12.011    3.051443   -3.988947   -3.510762
  19 C     6.0000    0    12.011    1.952486    4.596003   -3.538191
  20 C     6.0000    0    12.011    1.892863    4.608626    3.551017
  21 C     6.0000    0    12.011   -6.765444   -0.880406   -5.729003
  22 H     1.0000    0     1.008   -7.910464    0.813508   -5.899933
  23 H     1.0000    0     1.008   -5.688473   -1.145257   -7.466928
  24 H     1.0000    0     1.008   -7.940557   -2.541746   -5.446512
  25 C     6.0000    0    12.011    2.666360    6.346719   -5.666816
  26 H     1.0000    0     1.008    1.857058    8.207241   -5.341394
  27 H     1.0000    0     1.008    4.705811    6.452676   -5.864232
  28 H     1.0000    0     1.008    1.855802    5.592945   -7.405893
  29 C     6.0000    0    12.011    4.213449   -5.490628   -5.632240
  30 H     1.0000    0     1.008    3.823500   -4.495936   -7.395615
  31 H     1.0000    0     1.008    6.250487   -5.591239   -5.388783
  32 H     1.0000    0     1.008    3.385015   -7.365567   -5.728298
  33 C     6.0000    0    12.011    4.117305   -5.434265    5.730045
  34 H     1.0000    0     1.008    3.704430   -7.431951    5.488547
  35 H     1.0000    0     1.008    6.138755   -5.106940    5.861182
  36 H     1.0000    0     1.008    3.220056   -4.797826    7.474069
  37 C     6.0000    0    12.011   -6.877866   -0.874801    5.618927
  38 H     1.0000    0     1.008   -7.616825   -2.786288    5.721397
  39 H     1.0000    0     1.008   -5.905275   -0.437736    7.383657
  40 H     1.0000    0     1.008   -8.389434    0.492499    5.364517
  41 C     6.0000    0    12.011    2.631597    6.343775    5.684130
  42 H     1.0000    0     1.008    2.656074    5.236892    7.423063
  43 H     1.0000    0     1.008    4.525482    7.074685    5.366618
  44 H     1.0000    0     1.008    1.273929    7.869976    5.876893
* core charge reduced due to ECP

--------------------------------
INTERNAL COORDINATES (ANGSTROEM)
--------------------------------
 Pd     0   0   0     0.000000000000     0.00000000     0.00000000
 Pd     1   0   0     3.264363740977     0.00000000     0.00000000
 Pd     1   2   0     3.266432041175    60.03149894     0.00000000
 O      1   2   3     2.032187231460   115.66881387    53.07640738
 O      1   2   3     2.032212377561   115.78491201   306.98745783
 O      1   2   3     2.031757201637    75.49442536   132.03140163
 O      1   2   3     2.032430893795    75.31315656   228.07806566
 O      2   1   3     2.032285710454    75.63064853   131.17541281
 O      2   1   3     2.033699682648   116.08354053    52.22028546
 O      2   1   3     2.032887842438    75.43572789   227.04345167
 O      2   1   3     2.032237516657   115.43469158   306.02196503
 O      3   1   2     2.034458436952   115.99839306    52.18230294
 O      3   1   2     2.032173986184    75.52752736   131.18835943
 O      3   1   2     2.032018831367    75.47639070   227.12477126
 O      3   1   2     2.032459414474   115.46425964   306.18613104
 C      8   2   1     1.255160057096   130.88670702     1.46201780
 C      6   1   2     1.254971055426   131.11892623     1.60202422
 C     13   3   1     1.255341308704   131.01647035     1.27307900
 C      5   1   2     1.255107688037   131.19895793    47.18776803
 C     15   3   1     1.255143940723   130.70244467    48.61706472
 C     12   3   1     1.255257957625   131.61374877   316.60840487
 C     16   8   2     1.506895550609   116.82436035   179.59566947
 H     22  16   8     1.085733431460   110.60682208   341.11729852
 H     22  16   8     1.090977561910   107.91835666   100.40188857
 H     22  16   8     1.087165025763   109.91232368   218.08413748
 C     20  15   3     1.506591646027   116.89896847   178.97984019
 H     26  20  15     1.087380239957   109.85311304   219.08623003
 H     26  20  15     1.085724163536   110.66716729   342.12751523
 H     26  20  15     1.090871495567   107.89666863   101.52226065
 C     19   5   1     1.506619814923   116.80497736   179.87320919
 H     30  19   5     1.091050386725   107.79657917    96.96610125
 H     30  19   5     1.086930133183   110.01597609   214.76196395
 H     30  19   5     1.085900161798   110.61153705   337.97025769
 C     18  13   3     1.506566095469   116.80010483   179.84223832
 H     34  18  13     1.087009961859   110.03027482   216.08301186
 H     34  18  13     1.085857815931   110.54000202   339.21216277
 H     34  18  13     1.091149113248   107.85731104    98.27482111
 C     17   6   1     1.506707865239   116.82921518   179.75993914
 H     38  17   6     1.085824676202   110.60697671   338.52106825
 H     38  17   6     1.091084877165   107.78882629    97.52375823
 H     38  17   6     1.086949783150   110.04148916   215.29018060
 C     21  12   3     1.506681936132   116.33613739   178.19360078
 H     42  21  12     1.090885427070   107.92873342   282.45291215
 H     42  21  12     1.087307273388   109.88680648    40.09694646
 H     42  21  12     1.085743592201   110.61078201   163.11196660

---------------------------
INTERNAL COORDINATES (A.U.)
---------------------------
 Pd     0   0   0     0.000000000000     0.00000000     0.00000000
 Pd     1   0   0     6.168753471949     0.00000000     0.00000000
 Pd     1   2   0     6.172661992887    60.03149894     0.00000000
 O      1   2   3     3.840277320311   115.66881387    53.07640738
 O      1   2   3     3.840324839556   115.78491201   306.98745783
 O      1   2   3     3.839464681717    75.49442536   132.03140163
 O      1   2   3     3.840737775394    75.31315656   228.07806566
 O      2   1   3     3.840463418640    75.63064853   131.17541281
 O      2   1   3     3.843135438847   116.08354053    52.22028546
 O      2   1   3     3.841601283187    75.43572789   227.04345167
 O      2   1   3     3.840372345563   115.43469158   306.02196503
 O      3   1   2     3.844569276685   115.99839306    52.18230294
 O      3   1   2     3.840252290366    75.52752736   131.18835943
 O      3   1   2     3.839959090254    75.47639070   227.12477126
 O      3   1   2     3.840791671667   115.46425964   306.18613104
 C      8   2   1     2.371908762148   130.88670702     1.46201780
 C      6   1   2     2.371551600754   131.11892623     1.60202422
 C     13   3   1     2.372251278049   131.01647035     1.27307900
 C      5   1   2     2.371809798969   131.19895793    47.18776803
 C     15   3   1     2.371878306617   130.70244467    48.61706472
 C     12   3   1     2.372093767337   131.61374877   316.60840487
 C     16   8   2     2.847619903076   116.82436035   179.59566947
 H     22  16   8     2.051738839901   110.60682208   341.11729852
 H     22  16   8     2.061648810262   107.91835666   100.40188857
 H     22  16   8     2.054444161069   109.91232368   218.08413748
 C     20  15   3     2.847045606644   116.89896847   178.97984019
 H     26  20  15     2.054850856955   109.85311304   219.08623003
 H     26  20  15     2.051721326063   110.66716729   342.12751523
 H     26  20  15     2.061448373923   107.89666863   101.52226065
 C     19   5   1     2.847098838143   116.80497736   179.87320919
 H     30  19   5     2.061786429218   107.79657917    96.96610125
 H     30  19   5     2.054000278422   110.01597609   214.76196395
 H     30  19   5     2.052053914579   110.61153705   337.97025769
 C     18  13   3     2.846997323088   116.80010483   179.84223832
 H     34  18  13     2.054151132758   110.03027482   216.08301186
 H     34  18  13     2.051973892488   110.54000202   339.21216277
 H     34  18  13     2.061972995309   107.85731104    98.27482111
 C     17   6   1     2.847265229126   116.82921518   179.75993914
 H     38  17   6     2.051911267476   110.60697671   338.52106825
 H     38  17   6     2.061851606706   107.78882629    97.52375823
 H     38  17   6     2.054037411478   110.04148916   215.29018060
 C     21  12   3     2.847216230216   116.33613739   178.19360078
 H     42  21  12     2.061474700648   107.92873342   282.45291215
 H     42  21  12     2.054712970124   109.88680648    40.09694646
 H     42  21  12     2.051758040920   110.61078201   163.11196660

---------------------
BASIS SET INFORMATION
---------------------
There are 4 groups of distinct atoms

 Group   1 Type Pd  : 7s6p5d contracted to 5s3p2d pattern {31111/411/41}
 Group   2 Type O   : 7s4p1d contracted to 3s2p1d pattern {511/31/1}
 Group   3 Type C   : 7s4p1d contracted to 3s2p1d pattern {511/31/1}
 Group   4 Type H   : 4s contracted to 2s pattern {31}

Atom   0Pd   basis set group =>   1
Atom   1Pd   basis set group =>   1
Atom   2Pd   basis set group =>   1
Atom   3O    basis set group =>   2
Atom   4O    basis set group =>   2
Atom   5O    basis set group =>   2
Atom   6O    basis set group =>   2
Atom   7O    basis set group =>   2
Atom   8O    basis set group =>   2
Atom   9O    basis set group =>   2
Atom  10O    basis set group =>   2
Atom  11O    basis set group =>   2
Atom  12O    basis set group =>   2
Atom  13O    basis set group =>   2
Atom  14O    basis set group =>   2
Atom  15C    basis set group =>   3
Atom  16C    basis set group =>   3
Atom  17C    basis set group =>   3
Atom  18C    basis set group =>   3
Atom  19C    basis set group =>   3
Atom  20C    basis set group =>   3
Atom  21C    basis set group =>   3
Atom  22H    basis set group =>   4
Atom  23H    basis set group =>   4
Atom  24H    basis set group =>   4
Atom  25C    basis set group =>   3
Atom  26H    basis set group =>   4
Atom  27H    basis set group =>   4
Atom  28H    basis set group =>   4
Atom  29C    basis set group =>   3
Atom  30H    basis set group =>   4
Atom  31H    basis set group =>   4
Atom  32H    basis set group =>   4
Atom  33C    basis set group =>   3
Atom  34H    basis set group =>   4
Atom  35H    basis set group =>   4
Atom  36H    basis set group =>   4
Atom  37C    basis set group =>   3
Atom  38H    basis set group =>   4
Atom  39H    basis set group =>   4
Atom  40H    basis set group =>   4
Atom  41C    basis set group =>   3
Atom  42H    basis set group =>   4
Atom  43H    basis set group =>   4
Atom  44H    basis set group =>   4
---------------------------------
AUXILIARY/J BASIS SET INFORMATION
---------------------------------
There are 4 groups of distinct atoms

 Group   1 Type Pd  : 11s5p5d3f3g contracted to 8s5p5d2f3g pattern {41111111/11111/11111/21/111}
 Group   2 Type O   : 12s5p4d2f1g contracted to 6s4p3d1f1g pattern {711111/2111/211/2/1}
 Group   3 Type C   : 12s5p4d2f1g contracted to 6s4p3d1f1g pattern {711111/2111/211/2/1}
 Group   4 Type H   : 5s2p1d contracted to 3s1p1d pattern {311/2/1}

Atom   0Pd   basis set group =>   1
Atom   1Pd   basis set group =>   1
Atom   2Pd   basis set group =>   1
Atom   3O    basis set group =>   2
Atom   4O    basis set group =>   2
Atom   5O    basis set group =>   2
Atom   6O    basis set group =>   2
Atom   7O    basis set group =>   2
Atom   8O    basis set group =>   2
Atom   9O    basis set group =>   2
Atom  10O    basis set group =>   2
Atom  11O    basis set group =>   2
Atom  12O    basis set group =>   2
Atom  13O    basis set group =>   2
Atom  14O    basis set group =>   2
Atom  15C    basis set group =>   3
Atom  16C    basis set group =>   3
Atom  17C    basis set group =>   3
Atom  18C    basis set group =>   3
Atom  19C    basis set group =>   3
Atom  20C    basis set group =>   3
Atom  21C    basis set group =>   3
Atom  22H    basis set group =>   4
Atom  23H    basis set group =>   4
Atom  24H    basis set group =>   4
Atom  25C    basis set group =>   3
Atom  26H    basis set group =>   4
Atom  27H    basis set group =>   4
Atom  28H    basis set group =>   4
Atom  29C    basis set group =>   3
Atom  30H    basis set group =>   4
Atom  31H    basis set group =>   4
Atom  32H    basis set group =>   4
Atom  33C    basis set group =>   3
Atom  34H    basis set group =>   4
Atom  35H    basis set group =>   4
Atom  36H    basis set group =>   4
Atom  37C    basis set group =>   3
Atom  38H    basis set group =>   4
Atom  39H    basis set group =>   4
Atom  40H    basis set group =>   4
Atom  41C    basis set group =>   3
Atom  42H    basis set group =>   4
Atom  43H    basis set group =>   4
Atom  44H    basis set group =>   4
-------------------------
ECP PARAMETER INFORMATION
-------------------------

 Group 1, Type Pd ECP Def2-ECP (replacing 28 core electrons, lmax=3)

Atom   0Pd   ECP group =>   1
Atom   1Pd   ECP group =>   1
Atom   2Pd   ECP group =>   1



           ************************************************************
           *        Program running with 16 parallel MPI-processes    *
           *              working on a common directory               *
           ************************************************************
------------------------------------------------------------------------------
                             ORCA STARTUP CALCULATIONS
                           -- RI-GTO INTEGRALS CHOSEN --
------------------------------------------------------------------------------
------------------------------------------------------------------------------
                   ___                                                        
                  /   \      - P O W E R E D   B Y -                         
                 /     \                                                     
                 |  |  |   _    _      __       _____    __    __             
                 |  |  |  | |  | |    /  \     |  _  \  |  |  /  |          
                  \  \/   | |  | |   /    \    | | | |  |  | /  /          
                 / \  \   | |__| |  /  /\  \   | |_| |  |  |/  /          
                |  |  |   |  __  | /  /__\  \  |    /   |      \           
                |  |  |   | |  | | |   __   |  |    \   |  |\   \          
                \     /   | |  | | |  |  |  |  | |\  \  |  | \   \       
                 \___/    |_|  |_| |__|  |__|  |_| \__\ |__|  \__/        
                                                                              
                      - O R C A' S   B I G   F R I E N D -                    
                                      &                                       
                       - I N T E G R A L  F E E D E R -                       
                                                                              
 v1 FN, 2020, v2 2021, v3 2022-2024                                           
------------------------------------------------------------------------------


----------------------
SHARK INTEGRAL PACKAGE
----------------------

Number of atoms                             ...     45
Number of basis functions                   ...    444
Number of shells                            ...    210
Maximum angular momentum                    ...      2
Integral batch strategy                     ... SHARK/LIBINT Hybrid
RI-J (if used) integral strategy            ... SPLIT-RIJ (Revised 2003 algorithm where possible)
Printlevel                                  ...      1
Contraction scheme used                     ... SEGMENTED contraction
Prescreening option                         ... SCHWARTZ
   Thresh                                   ... 2.500e-11
   Tcut                                     ... 2.500e-12
   Tpresel                                  ... 2.500e-12 
Coulomb Range Separation                    ... NOT USED
Exchange Range Separation                   ... NOT USED
Multipole approximations                    ... NOT USED
Finite Nucleus Model                        ... NOT USED
CABS basis                                  ... NOT available
Auxiliary Coulomb fitting basis             ... AVAILABLE
   # of basis functions in Aux-J            ...   1641
   # of shells in Aux-J                     ...    519
   Maximum angular momentum in Aux-J        ...      4
Auxiliary J/K fitting basis                 ... NOT available
Auxiliary Correlation fitting basis         ... NOT available
Auxiliary 'external' fitting basis          ... NOT available

Checking pre-screening integrals            ... done (  0.1 sec) Dimension = 210
Check shell pair data                       ... done (  0.1 sec)
Shell pair information
Shell pair cut-off parameter TPreSel        ...   2.5e-12
Total number of shell pairs                 ...     22155
Shell pairs after pre-screening             ...     16300
Total number of primitive shell pairs       ...     86316
Primitive shell pairs kept                  ...     37582
          la=0 lb=0:   5278 shell pairs
          la=1 lb=0:   5573 shell pairs
          la=1 lb=1:   1457 shell pairs
          la=2 lb=0:   2397 shell pairs
          la=2 lb=1:   1325 shell pairs
          la=2 lb=2:    270 shell pairs

Calculating one electron integrals          ... done (  0.0 sec)
Calculating ECP integrals                   ... done (  0.6 sec)
Calculating RI/J V-Matrix + Cholesky decomp.... done (  0.2 sec)
Calculating Nuclear repulsion               ... done (  0.0 sec) ENN=   3875.944802114935 Eh

Diagonalization of the overlap matrix:
Smallest eigenvalue                        ... 2.270e-03
Time for diagonalization                   ...    0.060 sec
Threshold for overlap eigenvalues          ... 1.000e-07
Number of eigenvalues below threshold      ... 0
Time for construction of square roots      ...    0.041 sec
Total time needed                          ...    0.176 sec

-------------------
DFT GRID GENERATION
-------------------

General Integration Accuracy     IntAcc      ... 4.388
Radial Grid Type                 RadialGrid  ... OptM3 with GC (2021)
Angular Grid (max. ang.)         AngularGrid ... 4 (Lebedev-302)
Angular grid pruning method      GridPruning ... 4 (adaptive)
Weight generation scheme         WeightScheme... mBecke (2022)
Basis function cutoff            BFCut       ... 1.0000e-11
Integration weight cutoff        WCut        ... 1.0000e-14
Partially contracted basis set               ... off
Rotationally invariant grid construction     ... off
Angular grids for H and He will be reduced by one unit

Total number of grid points                  ...   230256
Total number of batches                      ...     3621
Average number of points per batch           ...       63
Average number of grid points per atom       ...     5117

--------------------
COSX GRID GENERATION
--------------------

GRIDX 1
-------
General Integration Accuracy     IntAcc      ... 3.816
Radial Grid Type                 RadialGrid  ... OptM3 with GC (2021)
Angular Grid (max. ang.)         AngularGrid ... 1 (Lebedev-50)
Angular grid pruning method      GridPruning ... 4 (adaptive)
Weight generation scheme         WeightScheme... mBecke (2022)
Basis function cutoff            BFCut       ... 1.0000e-11
Integration weight cutoff        WCut        ... 1.0000e-14
Partially contracted basis set               ... on
Rotationally invariant grid construction     ... off
Angular grids for H and He will be reduced by one unit

Total number of grid points                  ...    38815
Total number of batches                      ...      324
Average number of points per batch           ...      119
Average number of grid points per atom       ...      863
UseSFitting                                  ... on

GRIDX 2
-------
General Integration Accuracy     IntAcc      ... 4.020
Radial Grid Type                 RadialGrid  ... OptM3 with GC (2021)
Angular Grid (max. ang.)         AngularGrid ... 2 (Lebedev-110)
Angular grid pruning method      GridPruning ... 4 (adaptive)
Weight generation scheme         WeightScheme... mBecke (2022)
Basis function cutoff            BFCut       ... 1.0000e-11
Integration weight cutoff        WCut        ... 1.0000e-14
Partially contracted basis set               ... on
Rotationally invariant grid construction     ... off
Angular grids for H and He will be reduced by one unit

Total number of grid points                  ...    69212
Total number of batches                      ...      567
Average number of points per batch           ...      122
Average number of grid points per atom       ...     1538
UseSFitting                                  ... on

GRIDX 3
-------
General Integration Accuracy     IntAcc      ... 4.338
Radial Grid Type                 RadialGrid  ... OptM3 with GC (2021)
Angular Grid (max. ang.)         AngularGrid ... 3 (Lebedev-194)
Angular grid pruning method      GridPruning ... 4 (adaptive)
Weight generation scheme         WeightScheme... mBecke (2022)
Basis function cutoff            BFCut       ... 1.0000e-11
Integration weight cutoff        WCut        ... 1.0000e-14
Partially contracted basis set               ... on
Rotationally invariant grid construction     ... off
Angular grids for H and He will be reduced by one unit

Total number of grid points                  ...   135990
Total number of batches                      ...     1081
Average number of points per batch           ...      125
Average number of grid points per atom       ...     3022
UseSFitting                                  ... on
Initializing property integral containers    ... done (  0.6 sec)

SHARK setup successfully completed in   8.0 seconds

Maximum memory used throughout the entire STARTUP-calculation: 62.2 MB


           ************************************************************
           *        Program running with 16 parallel MPI-processes    *
           *              working on a common directory               *
           ************************************************************
-------------------------------------------------------------------------------
                                 ORCA GUESS
                   Start orbitals & Density for SCF / CASSCF
-------------------------------------------------------------------------------

------------
SCF SETTINGS
------------
Hamiltonian:
 Density Functional     Method          .... DFT(GTOs)
 Exchange Functional    Exchange        .... PBE
   PBE kappa parameter   XKappa         ....  0.804000
   PBE mue parameter    XMuePBE         ....  0.219520
 Correlation Functional Correlation     .... PBE
   PBE beta parameter  CBetaPBE         ....  0.066725
 LDA part of GGA corr.  LDAOpt          .... PW91-LDA
 Gradients option       PostSCFGGA      .... off
 Hybrid DFT is turned on
   Fraction HF Exchange ScalHFX         ....  0.250000
   Scaling of DF-GGA-X  ScalDFX         ....  0.750000
   Scaling of DF-GGA-C  ScalDFC         ....  1.000000
   Scaling of DF-LDA-C  ScalLDAC        ....  1.000000
   Perturbative correction              ....  0.000000
   NL short-range parameter             ....  6.900000
 RI-approximation to the Coulomb term is turned on
   Number of AuxJ basis functions       .... 1641
   RIJ-COSX (HFX calculated with COS-X)).... on


General Settings:
 Integral files         IntName         .... CS_PdOAc_001_opt_01
 Hartree-Fock type      HFTyp           .... RHF
 Total Charge           Charge          ....    0
 Multiplicity           Mult            ....    1
 Number of Electrons    NEL             ....  240
 Basis Dimension        Dim             ....  444
 Nuclear Repulsion      ENuc            ....   3875.9448021149 Eh

Convergence Acceleration:
 AO-DIIS                CNVDIIS         .... on
   Start iteration      DIISMaxIt       ....     0
   Startup error        DIISStart       ....  0.200000
   # of expansion vecs  DIISMaxEq       ....     5
   Bias factor          DIISBfac        ....   1.050
   Max. coefficient     DIISMaxC        ....  10.000
 MO-DIIS                CNVKDIIS        .... off
 Trust-Rad. Augm. Hess. CNVTRAH         .... auto
   Auto Start mean grad. ratio tolernc. ....  1.125000
   Auto Start start iteration           ....    50
   Auto Start num. interpolation iter.  ....    10
   Max. Number of Micro iterations      ....    24
   Max. Number of Macro iterations      .... Maxiter - #DIIS iter
   Number of Davidson start vectors     ....     2
   Converg. threshold    (grad. norm)   ....   1.000e-05
   Grad. Scal. Fac. for Micro threshold ....   0.100
   Minimum threshold for Micro iter.    ....   1.000e-02
   NR start threshold (gradient norm)   ....   1.000e-04
   Initial trust radius                 ....   0.400
   Minimum AH scaling param. (alpha)    ....   1.000
   Maximum AH scaling param. (alpha)    .... 1000.000
   Quad. conv. algorithm                .... NR
   White noise on init. David. guess    .... on
   Maximum white noise                  ....   0.010
   Pseudo random numbers                .... off
   Inactive MOs                         .... canonical
   Orbital update algorithm             .... Taylor
   Preconditioner                       .... Diag
   Full preconditioner red. dimension   ....   250
 SOSCF                  CNVSOSCF        .... on
   Start iteration      SOSCFMaxIt      ....   150
   Startup grad/error   SOSCFStart      ....  0.001000
   Hessian update       SOSCFHessUp     .... L-BFGS
 Level Shifting         CNVShift        .... on
   Level shift para.    LevelShift      ....    0.2500
   Turn off err/grad.   ShiftErr        ....    0.0000
 Zerner damping         CNVZerner       .... off
 Static damping         CNVDamp         .... on
   Fraction old density DampFac         ....    0.8500
   Max. Damping (<1)    DampMax         ....    0.9800
   Min. Damping (>=0)   DampMin         ....    0.0000
   Turn off err/grad.   DampErr         ....    0.0300

SCF Procedure:
 Maximum # iterations   MaxIter         ....  1500
 SCF integral mode      SCFMode         .... Direct
   Integral package                     .... SHARK and LIBINT hybrid scheme
 Reset frequency        DirectResetFreq ....    20
 Integral Threshold     Thresh          ....  2.500e-11 Eh
 Primitive CutOff       TCut            ....  2.500e-12 Eh

Convergence Tolerance:
 Convergence Check Mode ConvCheckMode   .... Total+1el-Energy
 Convergence forced     ConvForced      .... 0
 Energy Change          TolE            ....  1.000e-08 Eh
 1-El. energy change                    ....  1.000e-05 Eh
 Orbital Gradient       TolG            ....  1.000e-05
 Orbital Rotation angle TolX            ....  1.000e-05
 DIIS Error             TolErr          ....  5.000e-07

------------------------------
INITIAL GUESS: MODEL POTENTIAL
------------------------------
Loading Hartree-Fock densities                     ... done
Atomic calculation to generate a density for atom 0 (Pd with ECP)
  Multiplicity assumed   :    3
  Atomic configuration   : 1s2 2s2 2p6 3s2 3p6 4s2 3d10 4p6 5s2 4d8 
  Number of open shells  : 1
  Command: /opt/apps/software/ORCA/6.0.0-gompi-2023b/bin/orca CS_PdOAc_001_opt_01_atom46.inp "" > CS_PdOAc_001_opt_01_atom46.out
Returned from the atomic calculation with res=0
Calculating cut-offs                               ... done
Initializing the effective Hamiltonian             ... done
Setting up the integral package (SHARK)            ... done
Starting the Coulomb interaction                   ... done (   0.4 sec)
Making the grid                                    ... done (   0.7 sec)
Mapping shells                                     ... done
Starting the XC term evaluation                    ... done (   0.2 sec)
  promolecular density results
     # of electrons  =    323.968799793
     EX              =   -580.318973790
     EC              =    -13.616499466
     EX+EC           =   -593.935473256
Transforming the Hamiltonian                       ... done (   0.1 sec)
Diagonalizing the Hamiltonian                      ... done (   0.1 sec)
Back transforming the eigenvectors                 ... done (   0.1 sec)
Now organizing SCF variables                       ... done
                      ------------------
                      INITIAL GUESS DONE (  14.9 sec)
                      ------------------
             **** ENERGY FILE WAS UPDATED (CS_PdOAc_001_opt_01.en.tmp) ****
Finished Guess after  16.1 sec
Maximum memory used throughout the entire GUESS-calculation: 38.5 MB


           ************************************************************
           *        Program running with 16 parallel MPI-processes    *
           *              working on a common directory               *
           ************************************************************

-------------------------------------------------------------------------------------------
                                      ORCA LEAN-SCF
                              memory conserving SCF solver
-------------------------------------------------------------------------------------------

----------------------------------------D-I-I-S--------------------------------------------
Iteration    Energy (Eh)           Delta-E    RMSDP     MaxDP     DIISErr   Damp  Time(sec)
-------------------------------------------------------------------------------------------
               ***  Starting incremental Fock matrix formation  ***
    1    -1751.3748249525006031     0.00e+00  1.22e-03  3.70e-02  4.63e-01  0.850   7.5
    2    -1751.5918516528618056    -2.17e-01  1.16e-03  4.83e-02  3.92e-01  0.850   6.0
                               ***Turning on AO-DIIS***
    3    -1751.7287438611392645    -1.37e-01  5.93e-04  2.36e-02  3.32e-01  0.850   6.3
    4    -1751.8149792030098979    -8.62e-02  3.75e-04  1.70e-02  2.81e-01  0.850   6.6
    5    -1751.8767497371645732    -6.18e-02  2.73e-04  1.37e-02  2.38e-01  0.850   5.3
    6    -1751.9256097714678617    -4.89e-02  2.25e-04  1.12e-02  2.02e-01  0.850   5.5
    7    -1751.9661490433063591    -4.05e-02  2.00e-04  9.62e-03  1.72e-01  0.850   5.4
    8    -1752.0000831922261568    -3.39e-02  1.75e-04  8.63e-03  1.46e-01  0.850   6.3
    9    -1752.0279957968805320    -2.79e-02  1.48e-04  7.48e-03  1.24e-01  0.850   5.5
   10    -1752.0509202283892591    -2.29e-02  1.23e-04  6.25e-03  1.06e-01  0.850   5.5
   11    -1752.0698733787876336    -1.90e-02  1.03e-04  5.20e-03  8.97e-02  0.850   5.0
   12    -1752.0856448944005024    -1.58e-02  8.61e-05  4.39e-03  7.62e-02  0.850   5.2
   13    -1752.0988184504367382    -1.32e-02  7.28e-05  3.77e-03  6.48e-02  0.850   6.1
   14    -1752.1098455460969490    -1.10e-02  6.15e-05  3.23e-03  5.51e-02  0.850   5.6
   15    -1752.1190961493975919    -9.25e-03  5.19e-05  2.74e-03  4.68e-02  0.850   5.4
   16    -1752.1268740342593446    -7.78e-03  4.37e-05  2.31e-03  3.97e-02  0.850   5.4
   17    -1752.1334262479658719    -6.55e-03  3.68e-05  1.96e-03  3.38e-02  0.850   5.3
   18    -1752.1389539847295964    -5.53e-03  3.10e-05  1.67e-03  2.87e-02  0.850   7.4
   19    -1752.1436228308712089    -4.67e-03  1.74e-04  9.47e-03  2.44e-02  0.000   5.0
                              *** Initializing SOSCF ***
---------------------------------------S-O-S-C-F--------------------------------------
Iteration    Energy (Eh)           Delta-E    RMSDP     MaxDP     MaxGrad    Time(sec)
--------------------------------------------------------------------------------------
   20    -1752.1696033632069884    -2.60e-02  1.12e-05  4.18e-04  3.54e-04     7.0
               *** Restarting incremental Fock matrix formation ***
   21    -1752.1695964433611152     6.92e-06  1.00e-05  4.63e-04  6.75e-05     7.3
   22    -1752.1695962797703032     1.64e-07  3.57e-06  1.19e-04  9.88e-05     5.0
   23    -1752.1695967717241729    -4.92e-07  6.96e-07  2.41e-05  4.51e-06     5.1
   24    -1752.1695967758496408    -4.13e-09  3.07e-07  2.48e-05  5.92e-06     5.0
                 **** Energy Check signals convergence ****

               *****************************************************
               *                     SUCCESS                       *
               *           SCF CONVERGED AFTER  24 CYCLES          *
               *****************************************************

Recomputing exchange energy using gridx3       ... done (    6.893 sec)
Old exchange energy                            :    -50.644968730 Eh
New exchange energy                            :    -50.644975206 Eh
Exchange energy change after final integration :     -0.000006476 Eh
Total energy after final integration           :  -1752.169603252 Eh
             **** ENERGY FILE WAS UPDATED (CS_PdOAc_001_opt_01.en.tmp) ****

----------------
TOTAL SCF ENERGY
----------------

Total Energy       :      -1752.16960325204968 Eh          -47678.95886 eV

Components:
Nuclear Repulsion  :       3875.94480211493465 Eh          105469.82005 eV
Electronic Energy  :      -5628.11439889078429 Eh         -153148.77873 eV
One Electron Energy:     -10282.52623098470940 Eh         -279801.76359 eV
Two Electron Energy:       4654.41183209392511 Eh          126652.98486 eV

Virial components:
Potential Energy   :      -3253.90329026774725 Eh          -88543.20998 eV
Kinetic Energy     :       1501.73368701569757 Eh           40864.25112 eV
Virial Ratio       :          2.16676453248780

DFT components:
N(Alpha)           :      119.999870941081 electrons
N(Beta)            :      119.999870941081 electrons
N(Total)           :      239.999741882161 electrons
E(X)               :     -152.173995158750 Eh       
E(C)               :       -8.687145149505 Eh       
E(XC)              :     -160.861140308255 Eh       

---------------
SCF CONVERGENCE
---------------

  Last Energy change         ...    4.1255e-09  Tolerance :   1.0000e-08
  Last MAX-Density change    ...    2.4797e-05  Tolerance :   1.0000e-07
  Last RMS-Density change    ...    3.0707e-07  Tolerance :   5.0000e-09
  Last DIIS Error            ...    3.5368e-04  Tolerance :   5.0000e-07
  Last Orbital Gradient      ...    5.9208e-06  Tolerance :   1.0000e-05
  Last Orbital Rotation      ...    9.3190e-06  Tolerance :   1.0000e-05


----------------
ORBITAL ENERGIES
----------------

  NO   OCC          E(Eh)            E(eV) 
   0   2.0000     -19.232235      -523.3357 
   1   2.0000     -19.232203      -523.3348 
   2   2.0000     -19.232138      -523.3331 
   3   2.0000     -19.232115      -523.3325 
   4   2.0000     -19.232107      -523.3322 
   5   2.0000     -19.232037      -523.3303 
   6   2.0000     -19.231412      -523.3133 
   7   2.0000     -19.231406      -523.3132 
   8   2.0000     -19.231261      -523.3092 
   9   2.0000     -19.231164      -523.3066 
  10   2.0000     -19.231007      -523.3023 
  11   2.0000     -19.230969      -523.3013 
  12   2.0000     -10.368998      -282.1548 
  13   2.0000     -10.368921      -282.1527 
  14   2.0000     -10.368906      -282.1523 
  15   2.0000     -10.368834      -282.1503 
  16   2.0000     -10.368808      -282.1496 
  17   2.0000     -10.368789      -282.1491 
  18   2.0000     -10.233847      -278.4771 
  19   2.0000     -10.233769      -278.4750 
  20   2.0000     -10.233740      -278.4742 
  21   2.0000     -10.233738      -278.4742 
  22   2.0000     -10.233736      -278.4741 
  23   2.0000     -10.233725      -278.4738 
  24   2.0000      -3.544168       -96.4417 
  25   2.0000      -3.544071       -96.4391 
  26   2.0000      -3.543985       -96.4367 
  27   2.0000      -2.223897       -60.5153 
  28   2.0000      -2.223836       -60.5137 
  29   2.0000      -2.223781       -60.5122 
  30   2.0000      -2.223737       -60.5109 
  31   2.0000      -2.223625       -60.5079 
  32   2.0000      -2.223453       -60.5032 
  33   2.0000      -2.177494       -59.2526 
  34   2.0000      -2.176920       -59.2370 
  35   2.0000      -2.176829       -59.2345 
  36   2.0000      -1.117584       -30.4110 
  37   2.0000      -1.114039       -30.3145 
  38   2.0000      -1.113892       -30.3105 
  39   2.0000      -1.112057       -30.2606 
  40   2.0000      -1.111956       -30.2579 
  41   2.0000      -1.111648       -30.2495 
  42   2.0000      -1.026562       -27.9342 
  43   2.0000      -1.026410       -27.9300 
  44   2.0000      -1.022478       -27.8230 
  45   2.0000      -1.022125       -27.8134 
  46   2.0000      -1.021979       -27.8095 
  47   2.0000      -1.021154       -27.7870 
  48   2.0000      -0.766581       -20.8597 
  49   2.0000      -0.764103       -20.7923 
  50   2.0000      -0.764036       -20.7905 
  51   2.0000      -0.764012       -20.7898 
  52   2.0000      -0.763966       -20.7886 
  53   2.0000      -0.763031       -20.7631 
  54   2.0000      -0.601335       -16.3631 
  55   2.0000      -0.587357       -15.9828 
  56   2.0000      -0.587169       -15.9777 
  57   2.0000      -0.584678       -15.9099 
  58   2.0000      -0.584656       -15.9093 
  59   2.0000      -0.578878       -15.7521 
  60   2.0000      -0.550601       -14.9826 
  61   2.0000      -0.544144       -14.8069 
  62   2.0000      -0.544008       -14.8032 
  63   2.0000      -0.532824       -14.4989 
  64   2.0000      -0.532711       -14.4958 
  65   2.0000      -0.517030       -14.0691 
  66   2.0000      -0.510116       -13.8810 
  67   2.0000      -0.498995       -13.5783 
  68   2.0000      -0.498911       -13.5761 
  69   2.0000      -0.498877       -13.5751 
  70   2.0000      -0.497537       -13.5387 
  71   2.0000      -0.495322       -13.4784 
  72   2.0000      -0.495268       -13.4769 
  73   2.0000      -0.492472       -13.4008 
  74   2.0000      -0.492341       -13.3973 
  75   2.0000      -0.489899       -13.3308 
  76   2.0000      -0.483719       -13.1627 
  77   2.0000      -0.483647       -13.1607 
  78   2.0000      -0.429744       -11.6939 
  79   2.0000      -0.429694       -11.6926 
  80   2.0000      -0.429382       -11.6841 
  81   2.0000      -0.429356       -11.6834 
  82   2.0000      -0.428218       -11.6524 
  83   2.0000      -0.428017       -11.6469 
  84   2.0000      -0.421942       -11.4816 
  85   2.0000      -0.417072       -11.3491 
  86   2.0000      -0.416995       -11.3470 
  87   2.0000      -0.407821       -11.0974 
  88   2.0000      -0.402306       -10.9473 
  89   2.0000      -0.402259       -10.9460 
  90   2.0000      -0.387821       -10.5532 
  91   2.0000      -0.387618       -10.5476 
  92   2.0000      -0.372641       -10.1401 
  93   2.0000      -0.369383       -10.0514 
  94   2.0000      -0.369370       -10.0511 
  95   2.0000      -0.354014        -9.6332 
  96   2.0000      -0.353998        -9.6328 
  97   2.0000      -0.342821        -9.3286 
  98   2.0000      -0.342606        -9.3228 
  99   2.0000      -0.339262        -9.2318 
[...]
 20 C s       :     2.816065  s :     2.816065
      pz      :     0.915016  p :     2.739098
      px      :     0.965883
      py      :     0.858198
      dz2     :     0.048255  d :     0.311141
      dxz     :     0.082749
      dyz     :     0.024630
      dx2y2   :     0.077346
      dxy     :     0.078160

 21 C s       :     2.958585  s :     2.958585
      pz      :     1.085828  p :     3.320873
      px      :     1.099992
      py      :     1.135053
      dz2     :     0.010544  d :     0.066765
      dxz     :     0.020519
      dyz     :     0.010913
      dx2y2   :     0.008073
      dxy     :     0.016716

 22 H s       :     0.856397  s :     0.856397

 23 H s       :     0.844113  s :     0.844113

 24 H s       :     0.849454  s :     0.849454

 25 C s       :     2.958618  s :     2.958618
      pz      :     1.086372  p :     3.320779
      px      :     1.129395
      py      :     1.105012
      dz2     :     0.010791  d :     0.066765
      dxz     :     0.015783
      dyz     :     0.015226
      dx2y2   :     0.020045
      dxy     :     0.004922

 26 H s       :     0.849531  s :     0.849531

 27 H s       :     0.856431  s :     0.856431

 28 H s       :     0.844179  s :     0.844179

 29 C s       :     2.958568  s :     2.958568
      pz      :     1.086961  p :     3.320871
      px      :     1.122172
      py      :     1.111737
      dz2     :     0.010280  d :     0.066765
      dxz     :     0.010799
      dyz     :     0.020882
      dx2y2   :     0.009008
      dxy     :     0.015796

 30 H s       :     0.844176  s :     0.844176

 31 H s       :     0.849420  s :     0.849420

 32 H s       :     0.856394  s :     0.856394

 33 C s       :     2.958548  s :     2.958548
      pz      :     1.085778  p :     3.320810
      px      :     1.121983
      py      :     1.113048
      dz2     :     0.011218  d :     0.066771
      dxz     :     0.018186
      dyz     :     0.012218
      dx2y2   :     0.017717
      dxy     :     0.007432

 34 H s       :     0.850023  s :     0.850023

 35 H s       :     0.856099  s :     0.856099

 36 H s       :     0.843908  s :     0.843908

 37 C s       :     2.958589  s :     2.958589
      pz      :     1.086804  p :     3.320806
      px      :     1.099116
      py      :     1.134887
      dz2     :     0.011037  d :     0.066769
      dxz     :     0.018574
      dyz     :     0.011969
      dx2y2   :     0.014910
      dxy     :     0.010278

 38 H s       :     0.856096  s :     0.856096

 39 H s       :     0.843940  s :     0.843940

 40 H s       :     0.849990  s :     0.849990

 41 C s       :     2.958622  s :     2.958622
      pz      :     1.086136  p :     3.320642
      px      :     1.130742
      py      :     1.103764
      dz2     :     0.011228  d :     0.066775
      dxz     :     0.008868
      dyz     :     0.021496
      dx2y2   :     0.005209
      dxy     :     0.019973

 42 H s       :     0.844067  s :     0.844067

 43 H s       :     0.849863  s :     0.849863

 44 H s       :     0.856279  s :     0.856279



                      *****************************
                      * MAYER POPULATION ANALYSIS *
                      *****************************

  NA   - Mulliken gross atomic population
  ZA   - Total nuclear charge
  QA   - Mulliken gross atomic charge
  VA   - Mayer's total valence
  BVA  - Mayer's bonded valence
  FA   - Mayer's free valence

  ATOM       NA         ZA         QA         VA         BVA        FA
  0 Pd    17.5288    18.0000     0.4712     2.6517     2.6517     0.0000
  1 Pd    17.5286    18.0000     0.4714     2.6484     2.6484    -0.0000
  2 Pd    17.5281    18.0000     0.4719     2.6500     2.6500    -0.0000
  3 O      8.3576     8.0000    -0.3576     2.1913     2.1913    -0.0000
  4 O      8.3557     8.0000    -0.3557     2.2136     2.2136     0.0000
  5 O      8.3559     8.0000    -0.3559     2.2114     2.2114     0.0000
  6 O      8.3580     8.0000    -0.3580     2.1893     2.1893    -0.0000
  7 O      8.3555     8.0000    -0.3555     2.2135     2.2135     0.0000
  8 O      8.3579     8.0000    -0.3579     2.1896     2.1896    -0.0000
  9 O      8.3577     8.0000    -0.3577     2.1909     2.1909     0.0000
 10 O      8.3559     8.0000    -0.3559     2.2120     2.2120    -0.0000
 11 O      8.3577     8.0000    -0.3577     2.1905     2.1905    -0.0000
 12 O      8.3560     8.0000    -0.3560     2.2113     2.2113     0.0000
 13 O      8.3581     8.0000    -0.3581     2.1891     2.1891    -0.0000
 14 O      8.3555     8.0000    -0.3555     2.2135     2.2135     0.0000
 15 C      5.6572     6.0000     0.3428     4.1382     4.1382    -0.0000
 16 C      5.6575     6.0000     0.3425     4.1383     4.1383    -0.0000
 17 C      5.6576     6.0000     0.3424     4.1385     4.1385     0.0000
 18 C      5.6569     6.0000     0.3431     4.1379     4.1379    -0.0000
 19 C      5.6575     6.0000     0.3425     4.1387     4.1387    -0.0000
 20 C      5.6574     6.0000     0.3426     4.1385     4.1385    -0.0000
 21 C      6.3539     6.0000    -0.3539     3.8828     3.8828     0.0000
 22 H      0.8412     1.0000     0.1588     0.9537     0.9537     0.0000
 23 H      0.8327     1.0000     0.1673     0.9449     0.9449     0.0000
 24 H      0.8371     1.0000     0.1629     0.9513     0.9513     0.0000
 25 C      6.3532     6.0000    -0.3532     3.8834     3.8834     0.0000
 26 H      0.8372     1.0000     0.1628     0.9512     0.9512     0.0000
 27 H      0.8414     1.0000     0.1586     0.9535     0.9535     0.0000
 28 H      0.8330     1.0000     0.1670     0.9451     0.9451     0.0000
 29 C      6.3539     6.0000    -0.3539     3.8831     3.8831    -0.0000
 30 H      0.8329     1.0000     0.1671     0.9451     0.9451    -0.0000
 31 H      0.8371     1.0000     0.1629     0.9512     0.9512     0.0000
 32 H      0.8412     1.0000     0.1588     0.9536     0.9536     0.0000
 33 C      6.3534     6.0000    -0.3534     3.8830     3.8830    -0.0000
 34 H      0.8373     1.0000     0.1627     0.9516     0.9516     0.0000
 35 H      0.8410     1.0000     0.1590     0.9534     0.9534     0.0000
 36 H      0.8329     1.0000     0.1671     0.9450     0.9450    -0.0000
 37 C      6.3535     6.0000    -0.3535     3.8831     3.8831    -0.0000
 38 H      0.8409     1.0000     0.1591     0.9534     0.9534    -0.0000
 39 H      0.8330     1.0000     0.1670     0.9449     0.9449     0.0000
 40 H      0.8374     1.0000     0.1626     0.9516     0.9516    -0.0000
 41 C      6.3531     6.0000    -0.3531     3.8832     3.8832    -0.0000
 42 H      0.8331     1.0000     0.1669     0.9450     0.9450     0.0000
 43 H      0.8373     1.0000     0.1627     0.9514     0.9514    -0.0000
 44 H      0.8413     1.0000     0.1587     0.9535     0.9535    -0.0000

  Mayer bond orders larger than 0.100000
B(  0-Pd,  2-Pd) :   0.1010 B(  0-Pd,  3-O ) :   0.5053 B(  0-Pd,  4-O ) :   0.5330 
B(  0-Pd,  5-O ) :   0.5324 B(  0-Pd,  6-O ) :   0.5049 B(  1-Pd,  7-O ) :   0.5328 
B(  1-Pd,  8-O ) :   0.5053 B(  1-Pd,  9-O ) :   0.5053 B(  1-Pd, 10-O ) :   0.5322 
B(  2-Pd, 11-O ) :   0.5050 B(  2-Pd, 12-O ) :   0.5325 B(  2-Pd, 13-O ) :   0.5049 
B(  2-Pd, 14-O ) :   0.5325 B(  3-O , 17-C ) :   1.4767 B(  4-O , 18-C ) :   1.4814 
B(  5-O , 16-C ) :   1.4802 B(  6-O , 15-C ) :   1.4754 B(  7-O , 15-C ) :   1.4815 
B(  8-O , 19-C ) :   1.4752 B(  9-O , 16-C ) :   1.4762 B( 10-O , 20-C ) :   1.4807 
B( 11-O , 20-C ) :   1.4762 B( 12-O , 17-C ) :   1.4800 B( 13-O , 18-C ) :   1.4752 
B( 14-O , 19-C ) :   1.4816 B( 15-C , 21-C ) :   1.0739 B( 16-C , 37-C ) :   1.0744 
B( 17-C , 33-C ) :   1.0743 B( 18-C , 29-C ) :   1.0740 B( 19-C , 25-C ) :   1.0745 
B( 20-C , 41-C ) :   1.0742 B( 21-C , 22-H ) :   0.9425 B( 21-C , 23-H ) :   0.9262 
B( 21-C , 24-H ) :   0.9353 B( 25-C , 26-H ) :   0.9353 B( 25-C , 27-H ) :   0.9423 
B( 25-C , 28-H ) :   0.9263 B( 29-C , 30-H ) :   0.9263 B( 29-C , 31-H ) :   0.9352 
B( 29-C , 32-H ) :   0.9425 B( 33-C , 34-H ) :   0.9360 B( 33-C , 35-H ) :   0.9421 
B( 33-C , 36-H ) :   0.9258 B( 37-C , 38-H ) :   0.9420 B( 37-C , 39-H ) :   0.9258 
B( 37-C , 40-H ) :   0.9360 B( 41-C , 42-H ) :   0.9261 B( 41-C , 43-H ) :   0.9357 
B( 41-C , 44-H ) :   0.9423 

-------
TIMINGS
-------

Total SCF time: 0 days 0 hours 0 min 40 sec 

Total time                  ....      40.225 sec
Sum of individual times     ....      39.082 sec  ( 97.2%)

SCF preparation             ....       2.046 sec  (  5.1%)
Fock matrix formation       ....      30.771 sec  ( 76.5%)
  Startup                   ....       1.166 sec  (  3.8% of F)
  Split-RI-J                ....       3.790 sec  ( 12.3% of F)
  Chain of spheres X        ....      20.845 sec  ( 67.7% of F)
  XC integration            ....       3.531 sec  ( 11.5% of F)
    XC Preparation          ....       0.000 sec  (  0.0% of XC)
    Basis function eval.    ....       0.612 sec  ( 17.3% of XC)
    Density eval.           ....       0.394 sec  ( 11.2% of XC)
    XC-Functional eval.     ....       0.076 sec  (  2.2% of XC)
    XC-Potential eval.      ....       0.310 sec  (  8.8% of XC)
Diagonalization             ....       0.000 sec  (  0.0%)
Density matrix formation    ....       1.863 sec  (  4.6%)
Total Energy calculation    ....       0.883 sec  (  2.2%)
Population analysis         ....       0.933 sec  (  2.3%)
Orbital Transformation      ....       0.377 sec  (  0.9%)
Orbital Orthonormalization  ....       0.000 sec  (  0.0%)
DIIS solution               ....       0.561 sec  (  1.4%)
SOSCF solution              ....       1.648 sec  (  4.1%)
Finished LeanSCF after  41.2 sec

Maximum memory used throughout the entire LEANSCF-calculation: 68.1 MB


-------------------------------------------------------------------------------
                          DFT DISPERSION CORRECTION                            
                                                                               
                              DFTD3 V3.1  Rev 1                                
                          USING Becke-Johnson damping                          
-------------------------------------------------------------------------------
The PBE0 functional is recognized
Active option DFTDOPT                   ...         4   

molecular C6(AA) [au] = 30115.323007 


            DFT-D V3
 parameters
 s6 scaling factor         :     1.0000 
 a1 scaling factor         :     0.4145 
 s8 scaling factor         :     1.2177 
 a2 scaling factor         :     4.8593 
 ad hoc parameters k1-k3   :    16.0000     1.3333    -4.0000 

 Edisp/kcal,au: -37.515209994241  -0.059784286203 
 E6   /kcal   : -21.737941135 
 E8   /kcal   : -15.777268859 
 % E8         :  42.055659189 

-------------------------   ----------------
Dispersion correction           -0.059784286
-------------------------   ----------------


-------------------------   --------------------
FINAL SINGLE POINT ENERGY     -1752.233591840895
-------------------------   --------------------

                                *** OPTIMIZATION RUN DONE ***



           ************************************************************
           *        Program running with 16 parallel MPI-processes    *
           *              working on a common directory               *
           ************************************************************

------------------------------------------------------------------------------
                              ORCA PROPERTY CALCULATIONS
------------------------------------------------------------------------------

GBWName                                 ... CS_PdOAc_001_opt_01.gbw
Number of atoms                         ...     45
Number of basis functions               ...    444
Max core memory                         ...   3500 MB

Electric properties:
Dipole moment                           ... YES
Quadrupole moment                       ...  NO
Static polarizability (Dipole/Dipole)   ...  NO
Static polarizability (Dipole/Quad.)    ...  NO
Static polarizability (Quad./Quad.)     ...  NO
Static polarizability (Velocity)        ...  NO

Atomic electric properties:
Dipole moment                           ...  NO
Quadrupole moment                       ...  NO
Static polarizability                   ...  NO

Choice of electric origin               ... Center of mass
Position of electric origin             ...    -0.001678     0.001913    -0.001887

General magnetic properties:
Magnetizability                         ...  NO

EPR properties:
g-Tensor (aka g-matrix)                 ...  NO
Zero-Field splitting spin-orbit         ...  NO
Zero-field splitting spin-spin          ...  NO
Hyperfine couplings                     ...  NO (   0 nuclei)
Quadrupole couplings                    ...  NO (   0 nuclei)
Contact density                         ...  NO (   0 nuclei)

NMR properties:
Chemical shifts                         ...  NO (   0 nuclei)
Spin-rotation constants                 ...  NO (   0 nuclei)
Spin-spin couplings                     ...  NO (   0 nuclei,    0 pairs)

Choice of magnetic origin               ... GIAO
Position of magnetic origin             ...     0.000000     0.000000     0.000000

Properties with geometric perturbations:
SCF Hessian                             ...  NO
IR spectrum                             ...  NO
VCD spectrum                            ...  NO
X-ray spectroscopy properties:
SCF XES/XAS/RIXS spectra                ...  NO


-------------
DIPOLE MOMENT
-------------

Method             : SCF
Type of density    : Electron Density
Multiplicity       :   1
Irrep              :   0
Energy             : -1752.1738075546918481 Eh
Relativity type    : 
Basis              : AO
                                X                 Y                 Z
Electronic contribution:      0.000207589       0.071232399      -0.147542033
Nuclear contribution   :      0.000385917      -0.073192196       0.155278721
                        -----------------------------------------
Total Dipole Moment    :      0.000593506      -0.001959797       0.007736688
                        -----------------------------------------
Magnitude (a.u.)       :      0.008003087
Magnitude (Debye)      :      0.020342230



--------------------
Rotational spectrum 
--------------------
 
Rotational constants in cm-1:             0.004875             0.004873             0.004319 
Rotational constants in MHz :           146.162820           146.086298           129.494342 

Dipole components along the rotational axes: 
x,y,z [a.u.] :    -0.001909    -0.000820     0.007729 
x,y,z [Debye]:    -0.004851    -0.002084     0.019645 

 

Dipole moment calculation done in   0.3 sec 

Maximum memory used throughout the entire PROP-calculation: 30.8 MB

--------------------------------
SUGGESTED CITATIONS FOR THIS RUN
--------------------------------

Below you find a list of papers that are relevant to this ORCA run
We neither can nor want to force you to cite these papers, but we appreciate if you do
You receive ORCA, which is the product of decades of hard work by many enthusiastic individuals, for free
The only thing we kindly ask in return is that you cite our papers,
We deeply appreciate it, if you show your appreciation for ORCA by not just citing the generic ORCA reference.

Please note that relegating all ORCA citations to the supporting information does *not* help us.
SI sections are not indexed - citations you put there will not count into any citation statistics
But we need these citations in order to attract the funding resources that allow us to do what we are doing

Therefore, if you are a happy ORCA user, please consider citing a few of the papers listed below in the main body of your paper

In addition to the list printed below, the program has created the file CS_PdOAc_001_opt_01.bibtex that contains the list in bibtex format
You can import this file easily into all common literature databanks and citation aid programs


List of essential papers. We consider these as the minimum necessary citations

  1. Neese,F.
     Software update: the ORCA program system, version 5.0
     WIRES Comput. Molec. Sci., 2022 12(1)e1606
     doi.org/10.1002/wcms.1606

List of papers to cite with high priority. The work reported in these papers was absolutely
necessary for this run to complete.
Our perspective: the developers of density functionals and basis sets usually get cited in chemistry papers
Good! But without the algorithms to do something with them, the functionals or basis sets would not do anything.
Hence, in our opinion, the algorithm design and method developments papers are equally worthy of getting cited

  1. Neese,F.
     An improvement of the resolution of the identity approximation for the formation of the Coulomb matrix
     J. Comp. Chem., 2003 24(14)1740-1747
     doi.org/10.1002/jcc.10318
  2. Neese,F.; Wennmohs,F.; Hansen,A.; Becker,U.
     Efficient, approximate and parallel Hartree-Fock and hybrid DFT calculations. A 'chain-of-spheres' algorithm for the Hartree-Fock exchange
     Chem. Phys., 2009 356(1-3)98-109
     doi.org/10.1016/j.chemphys.2008.10.036
  3. Helmich-Paris,B.; de Souza,B.; Neese,F.; Izsák,R.
     An improved chain of spheres for exchange algorithm
     J. Chem. Phys., 2021 155 104109
     doi.org/doi: 10.1063/5.0058766.
  4. Neese,F.
     The SHARK Integral Generation and Digestion System
     J. Comp. Chem., 2022  1-16
     doi.org/10.1002/jcc.26942
  5. Grimme,S.; Antony,J.; Ehrlich,S.; Krieg,H.
     A consistent and accurate ab initio parametrization of density functional dispersion correction (DFT-D) for the 94 elements H-Pu
     J. Chem. Phys., 2010 132 154104-XXXX
     doi.org/10.1063/1.3382344
  6. Grimme,S.; Ehrlich,S.; Goerigk,L.
     Effect of the damping function in dispersion corrected density functional theory
     J. Comput. Chem., 2011 32(7)1456-1465
     doi.org/10.1002/jcc.21759

List of suggested additional citations. These are papers that are important in the 'surrounding' of 
of this run, or papers that preceded the highly important papers. If you like your results we are grateful for a citation.

  1. Izsak,R.; Neese,F.
     An overlap fitted chain of spheres exchange method
     J. Chem. Phys., 2011 135 144105
     doi.org/10.1063/1.3646921
  2. Izsak,R.; Hansen,A.; Neese,F.
     The resolution of identity and chain of spheres approximations for the LPNO-CCSD singles Fock term
     Molec. Phys., 2012 110 2413-2417
     doi.org/10.1080/00268976.2012.687466
  3. Neese,F.
     The ORCA program system
     WIRES Comput. Molec. Sci., 2012 2(1)73-78
     doi.org/10.1002/wcms.81
  4. Izsak,R.; Neese,F.; Klopper,W.
     Robust fitting techniques in the chain of spheres approximation to the Fock exchange: The role of the complementary space
     J. Chem. Phys., 2013 139 
     doi.org/10.1063/1.4819264
  5. Neese,F.
     Software update: the ORCA program system, version 4.0
     WIRES Comput. Molec. Sci., 2018 8(1)1-6
     doi.org/10.1002/wcms.1327
  6. Neese,F.; Wennmohs,F.; Becker,U.; Riplinger,C.
     The ORCA quantum chemistry program package
     J. Chem. Phys., 2020 152 Art. No. L224108
     doi.org/10.1063/5.0004608

List of optional additional citations

  1. Neese,F.
     Approximate second-order SCF convergence for spin unrestricted wavefunctions
     Chem. Phys. Lett., 2000 325(1-3)93-98
     doi.org/10.1016/s0009-2614(00)00662-x

Timings for individual modules:

Sum of individual times          ...     4632.497 sec (=  77.208 min)
Startup calculation              ...      385.277 sec (=   6.421 min)   8.3 %
SCF iterations                   ...     3227.570 sec (=  53.793 min)  69.7 %
Property calculations            ...        2.288 sec (=   0.038 min)   0.0 %
SCF Gradient evaluation          ...     1012.752 sec (=  16.879 min)  21.9 %
Geometry relaxation              ...        4.610 sec (=   0.077 min)   0.1 %
                             ****ORCA TERMINATED NORMALLY****
TOTAL RUN TIME: 0 days 1 hours 19 minutes 59 seconds 45 msec
