
                                 *****************
                                 * O   R   C   A *
                                 *****************

                                            #,                                       
                                            ###                                      
                                            ####                                     
                                            #####                                    
                                            ######                                   
                                           ########,                                 
                                     ,,################,,,,,                         
                               ,,#################################,,                 
                          ,,##########################################,,             
                       ,#########################################, ''#####,          
                    ,#############################################,,   '####,        
                  ,##################################################,,,,####,       
                ,###########''''           ''''###############################       
              ,#####''   ,,,,##########,,,,          '''####'''          '####       
            ,##' ,,,,###########################,,,                        '##       
           ' ,,###''''                  '''############,,,                           
         ,,##''                                '''############,,,,        ,,,,,,###''
      ,#''                                            '''#######################'''  
     '                                                          ''''####''''         
             ,#######,   #######,   ,#######,      ##                                
            ,#'     '#,  ##    ##  ,#'     '#,    #''#        ,####,   ,####,        
            ##       ##  ##   ,#'  ##            #'  '#       #'       #'  '#        
            ##       ##  #######   ##           ,######,      #####,   #    #        
            '#,     ,#'  ##    ##  '#,     ,#' ,#      #,     #,   #   #,  ,#        
             '#######'   ##     ##  '#######'  #'      '#     '####' # '####'        



                #########################################################
                #                        -***-                          #
                #          Department of theory and spectroscopy        #
                #                                                       #
                #                      Frank Neese                      #
                #                                                       #
                #     Directorship, Architecture, Infrastructure        #
                #                    SHARK, DRIVERS                     #
                #        Core code/Algorithms in most modules           #
                #                                                       #
                #        Max Planck Institute fuer Kohlenforschung      #
                #                Kaiser Wilhelm Platz 1                 #
                #                 D-45470 Muelheim/Ruhr                 #
                #                      Germany                          #
                #                                                       #
                #                  All rights reserved                  #
                #                        -***-                          #
                #########################################################


                         Program Version 6.0.0  -   RELEASE  -


 With contributions from (in alphabetic order):
   Daniel Aravena         : Magnetic Suceptibility
   Michael Atanasov       : Ab Initio Ligand Field Theory (pilot matlab implementation)
   Alexander A. Auer      : GIAO ZORA, VPT2 properties, NMR spectrum
   Ute Becker             : All parallelization in ORCA, NUMFREQ, NUMCALC
   Giovanni Bistoni       : ED, misc. LED, open-shell LED, HFLD
   Martin Brehm           : Molecular dynamics
   Dmytro Bykov           : pre 5.0 version of the SCF Hessian
   Marcos Casanova-Páez   : Triplet and SCS-CIS(D). UHF-(DLPNO)-IP/EA/STEOM-CCSD. UHF-CVS-IP/STEOM-CCSD
   Vijay G. Chilkuri      : MRCI spin determinant printing, contributions to CSF-ICE
   Pauline Colinet        : FMM embedding
   Dipayan Datta          : RHF DLPNO-CCSD density
   Achintya Kumar Dutta   : EOM-CC, STEOM-CC
   Nicolas Foglia         : Exact transition moments, OPA infrastructure, MCD improvements
   Dmitry Ganyushin       : Spin-Orbit,Spin-Spin,Magnetic field MRCI
   Miquel Garcia          : C-PCM and meta-GGA Hessian, CCSD/C-PCM, Gaussian charge scheme
   Tiago L. C. Gouveia    : GS-ROHF, GS-ROCIS
   Yang Guo               : DLPNO-NEVPT2, F12-NEVPT2, CIM, IAO-localization
   Andreas Hansen         : Spin unrestricted coupled pair/coupled cluster methods
   Ingolf Harden          : AUTO-CI MPn and infrastructure 
   Benjamin Helmich-Paris : MC-RPA, TRAH-(SCF,CASSCF), AVAS, COSX integrals, SCF dyn. polar.
   Lee Huntington         : MR-EOM, pCC
   Robert Izsak           : Overlap fitted RIJCOSX, COSX-SCS-MP3, EOM
   Riya Kayal             : Wick's Theorem for AUTO-CI, AUTO-CI UHF-CCSDT
   Emily Kempfer          : AUTO-CI, RHF CISDT and CCSDT
   Christian Kollmar      : KDIIS, OOCD, Brueckner-CCSD(T), CCSD density, CASPT2, CASPT2-K, improved NEVPT2
   Axel Koslowski         : Symmetry handling
   Simone Kossmann        : Meta GGA functionals, TD-DFT gradient, OOMP2, (MP2 Hessian; deprecated post 5.0)
   Lucas Lang             : DCDCAS
   Marvin Lechner         : AUTO-CI (C++ implementation), FIC-MRCC
   Spencer Leger          : CASSCF response
   Dagmar Lenk            : GEPOL surface, SMD, ORCA-2-JSON
   Dimitrios Liakos       : Extrapolation schemes; Compound Job, initial MDCI parallelization
   Dimitrios Manganas     : Further ROCIS development; embedding schemes. LFT, Crystal Embedding
   Dimitrios Pantazis     : SARC Basis sets
   Anastasios Papadopoulos: AUTO-CI, single reference methods and gradients
   Taras Petrenko         : pre 6.0 DFT Hessian and TD-DFT gradient, (ASA, deprecated), ECA, 1-Electron XAS/XES, NRVS
   Peter Pinski           : DLPNO-MP2, DLPNO-MP2 Gradient
   Christoph Reimann      : Effective Core Potentials
   Marius Retegan         : Local ZFS, SOC
   Christoph Riplinger    : Optimizer, TS searches, QM/MM, DLPNO-CCSD(T), (RO)-DLPNO pert. Triples
   Michael Roemelt        : Original ROCIS implementation
   Masaaki Saitow         : Open-shell DLPNO-CCSD energy and density
   Barbara Sandhoefer     : DKH picture change effects
   Kantharuban Sivalingam : CASSCF convergence/infrastructure, NEVPT2 and variants, FIC-MRCI
   Bernardo de Souza      : ESD, SOC TD-DFT
   Georgi Stoychev        : AutoAux, RI-MP2 NMR, DLPNO-MP2 response, X2C
   Van Anh Tran           : RI-MP2 g-tensors
   Willem Van den Heuvel  : Paramagnetic NMR
   Zikuan Wang            : NOTCH, Electric field optimization 
   Frank Wennmohs         : Technical directorship and infrastructure
   Hang Xu                : AUTO-CI-Response properties 


 We gratefully acknowledge several colleagues who have allowed us to
 interface, adapt or use parts of their codes:
   Stefan Grimme, W. Hujo, H. Kruse, P. Pracht,  : VdW corrections, initial TS optimization,
                  C. Bannwarth, S. Ehlert,         DFT functionals, gCP, sTDA/sTD-DF
                  L. Wittmann, M. Mueller
   Ed Valeev, F. Pavosevic, A. Kumar             : LibInt (2-el integral package), F12 methods
   Garnet Chan, S. Sharma, J. Yang, R. Olivares  : DMRG
   Ulf Ekstrom                                   : XCFun DFT Library
   Mihaly Kallay                                 : mrcc  (arbitrary order and MRCC methods)
   Frank Weinhold                                : gennbo (NPA and NBO analysis)
   Simon Mueller                                 : openCOSMO-RS
   Christopher J. Cramer and Donald G. Truhlar   : smd solvation model
   Lars Goerigk                                  : TD-DFT with DH, B97 family of functionals
   V. Asgeirsson, H. Jonsson                     : NEB implementation
   FAccTs GmbH                                   : IRC, NEB, NEB-TS, DLPNO-Multilevel, CI-OPT
                                                   MM, QMMM, 2- and 3-layer-ONIOM, Crystal-QMMM,
                                                   LR-CPCM, SF, NACMEs, symmetry and pop. for TD-DFT,
                                                   nearIR, NL-DFT gradient (VV10), updates on ESD,
                                                   ML-optimized integration grids, MBIS, APM,
                                                   GOAT, DOCKER, SOLVATOR, interface openCOSMO-RS
   S Lehtola, MJT Oliveira, MAL Marques          : LibXC Library
   Liviu Ungur et al                             : ANISO software


 Your calculation uses the libint2 library for the computation of 2-el integrals
 For citations please refer to: http://libint.valeyev.net

 Your ORCA version has been built with support for libXC version: 6.2.2
 For citations please refer to: https://libxc.gitlab.io

 This ORCA versions uses:
   CBLAS   interface :  Fast vector & matrix operations
   LAPACKE interface :  Fast linear algebra routines
   SCALAPACK package :  Parallel linear algebra routines
   Shared memory     :  Shared parallel matrices
   BLAS/LAPACK       :  OpenBLAS 0.3.27  USE64BITINT DYNAMIC_ARCH NO_AFFINITY Sandybridge SINGLE_THREADED
        Core in use  :  Sandybridge
   Copyright (c) 2011-2014, The OpenBLAS Project


NOTE: MaxCore=3500 MB was set to SCF,MP2,MDCI,CIPSI,MRCI and CIS
      => If you want to overwrite this, your respective input block should be placed after the MaxCore statement
Your calculation utilizes the atom-pairwise dispersion correction
with the Becke-Johnson damping scheme (D3BJ)


Warning: RI is on but no J-basis has been assigned. Assigning Def2/J (nothing to worry about!)
================================================================================

----- Orbital basis set information -----
Your calculation utilizes the basis: def2-SV(P)
   F. Weigend and R. Ahlrichs, Phys. Chem. Chem. Phys. 7, 3297 (2005).

----- AuxJ basis set information -----
Your calculation utilizes the auxiliary basis: def2/J
   F. Weigend, Phys. Chem. Chem. Phys. 8, 1057 (2006).

================================================================================
                                        WARNINGS
                       Please study these warnings very carefully!
================================================================================


WARNING: Geometry Optimization
  ===> : Switching off AutoStart
         For restart on a previous wavefunction, please use MOREAD

================================================================================
                                       INPUT FILE
================================================================================
NAME = CS_PdOAc_006_opt_01.inp
|  1> !PBE0 def2-SV(p) opt d3 TightSCF SlowConv RIJCOSX defgrid2
|  2> 
|  3> %pal
|  4> nprocs 4
|  5> end
|  6> 
|  7> %scf
|  8> MaxIter 1500
|  9> end
| 10> 
| 11> %maxcore 3500
| 12> 
| 13>  
| 14> 
| 15> * xyz 0 1
| 16> 8        0.000000000      0.000000000      0.000000000
| 17> 6        0.888991609     -0.768352222      0.441589541
| 18> 8        2.101469440     -0.781209690      0.116018149
| 19> 6        0.456002403     -1.757280323      1.492604295
| 20> 1        0.372539619     -1.224538890      2.440893041
| 21> 1       -0.523717382     -2.157279995      1.242831373
| 22> 1        1.188349517     -2.552397924      1.594067848
| 23> 1       -0.679885707      0.587622750     -0.337720193
| 24> *
| 25> 
| 26>                          ****END OF INPUT****
================================================================================

                       *****************************
                       * Geometry Optimization Run *
                       *****************************

Geometry optimization settings:
Update method            Update   .... BFGS
Choice of coordinates    CoordSys .... (2022) Redundant Internals
Initial Hessian          InHess   .... Almloef's Model
Max. no of cycles        MaxIter  .... 50

Convergence Tolerances:
Energy Change            TolE     ....  5.0000e-06 Eh
Max. Gradient            TolMAXG  ....  3.0000e-04 Eh/bohr
RMS Gradient             TolRMSG  ....  1.0000e-04 Eh/bohr
Max. Displacement        TolMAXD  ....  4.0000e-03 bohr
RMS Displacement         TolRMSD  ....  2.0000e-03 bohr
Strict Convergence                .... False

------------------------------------------------------------------------------
                        ORCA OPTIMIZATION COORDINATE SETUP
------------------------------------------------------------------------------

The optimization will be done in redundant internal coordinates (2022)
Making redundant internal coordinates   ...  (2022 redundants) done
Evaluating the initial hessian          ...  (Almloef) done
Evaluating the coordinates              ...  done
Calculating the B-matrix                .... done
Calculating the G-matrix                .... done
Diagonalizing the G-matrix              .... done
The first mode is                       ....    6
The number of degrees of freedom        ....   18

    -----------------------------------------------------------------
                    Redundant Internal Coordinates


    -----------------------------------------------------------------
         Definition                    Initial Value    Approx d2E/dq
    -----------------------------------------------------------------
      1. B(C   1,O   0)                  1.2553         0.918011   
      2. B(O   2,C   1)                  1.2555         0.917216   
      3. B(C   3,C   1)                  1.5067         0.406986   
      4. B(H   4,C   3)                  1.0909         0.358931   
      5. B(H   5,C   3)                  1.0873         0.363680   
      6. B(H   6,C   3)                  1.0857         0.365775   
      7. B(H   7,O   0)                  0.9600         0.519956   
      8. L(C   1,O   0,H   7,C   3, 1) 180.0000         0.396232   
      9. L(C   1,O   0,H   7,C   3, 2) 180.0000         0.396232   
     10. A(O   2,C   1,C   3)          116.8530         0.428963   
     11. A(O   0,C   1,C   3)          116.3361         0.429030   
     12. A(O   0,C   1,O   2)          126.7977         0.494323   
     13. A(C   1,C   3,H   6)          110.6108         0.329776   
     14. A(H   4,C   3,H   5)          108.0838         0.291143   
     15. A(C   1,C   3,H   5)          109.8868         0.329464   
     16. A(H   5,C   3,H   6)          111.0897         0.292009   
     17. A(H   4,C   3,H   6)          109.1479         0.291406   
     18. A(C   1,C   3,H   4)          107.9287         0.328749   
     19. D(H   4,C   3,C   1,O   2)    101.2265         0.012275   
     20. D(H   5,C   3,C   1,O   0)     40.0969         0.012275   
     21. D(H   5,C   3,C   1,O   2)   -141.1295         0.012275   
     22. D(H   6,C   3,C   1,O   0)    163.1120         0.012275   
     23. D(H   6,C   3,C   1,O   2)    -18.1144         0.012275   
     24. D(H   4,C   3,C   1,O   0)    -77.5471         0.012275   
    -----------------------------------------------------------------

Number of atoms                         .... 8
Number of degrees of freedom            .... 24


         *************************************************************
         *                GEOMETRY OPTIMIZATION CYCLE   1            *
         *************************************************************
---------------------------------
CARTESIAN COORDINATES (ANGSTROEM)
---------------------------------
  O      0.000000    0.000000    0.000000
  C      0.888992   -0.768352    0.441590
  O      2.101469   -0.781210    0.116018
  C      0.456002   -1.757280    1.492604
  H      0.372540   -1.224539    2.440893
  H     -0.523717   -2.157280    1.242831
  H      1.188350   -2.552398    1.594068
  H     -0.679886    0.587623   -0.337720

----------------------------
CARTESIAN COORDINATES (A.U.)
----------------------------
  NO LB      ZA    FRAG     MASS         X           Y           Z
   0 O     8.0000    0    15.999    0.000000    0.000000    0.000000
   1 C     6.0000    0    12.011    1.679951   -1.451975    0.834483
   2 O     8.0000    0    15.999    3.971202   -1.476272    0.219243
   3 C     6.0000    0    12.011    0.861720   -3.320779    2.820613
   4 H     1.0000    0     1.008    0.703998   -2.314043    4.612619
   5 H     1.0000    0     1.008   -0.989682   -4.076668    2.348611
   6 H     1.0000    0     1.008    2.245655   -4.823333    3.012352
   7 H     1.0000    0     1.008   -1.284798    1.110446   -0.638199

--------------------------------
INTERNAL COORDINATES (ANGSTROEM)
--------------------------------
 O      0   0   0     0.000000000000     0.00000000     0.00000000
 C      1   0   0     1.255257957810     0.00000000     0.00000000
 O      2   1   0     1.255493742095   126.79774948     0.00000000
 C      2   1   3     1.506681935441   116.33613743   178.63356043
 H      4   2   1     1.090885427778   107.92873339   282.45291211
 H      4   2   1     1.087307273628   109.88680646    40.09694635
 H      4   2   1     1.085743591918   110.61078203   163.11196659
 H      1   2   3     0.959999999823   180.00000000     0.00000000

---------------------------
INTERNAL COORDINATES (A.U.)
---------------------------
 O      0   0   0     0.000000000000     0.00000000     0.00000000
 C      1   0   0     2.372093767686     0.00000000     0.00000000
 O      2   1   0     2.372539335411   126.79774948     0.00000000
 C      2   1   3     2.847216228911   116.33613743   178.63356043
 H      4   2   1     2.061474701986   107.92873339   282.45291211
 H      4   2   1     2.054712970578   109.88680646    40.09694635
 H      4   2   1     2.051758040385   110.61078203   163.11196659
 H      1   2   3     1.814137088230   180.00000000     0.00000000

---------------------
BASIS SET INFORMATION
---------------------
There are 3 groups of distinct atoms

 Group   1 Type O   : 7s4p1d contracted to 3s2p1d pattern {511/31/1}
 Group   2 Type C   : 7s4p1d contracted to 3s2p1d pattern {511/31/1}
 Group   3 Type H   : 4s contracted to 2s pattern {31}

Atom   0O    basis set group =>   1
Atom   1C    basis set group =>   2
Atom   2O    basis set group =>   1
Atom   3C    basis set group =>   2
Atom   4H    basis set group =>   3
Atom   5H    basis set group =>   3
Atom   6H    basis set group =>   3
Atom   7H    basis set group =>   3
---------------------------------
AUXILIARY/J BASIS SET INFORMATION
---------------------------------
There are 3 groups of distinct atoms

 Group   1 Type O   : 12s5p4d2f1g contracted to 6s4p3d1f1g pattern {711111/2111/211/2/1}
 Group   2 Type C   : 12s5p4d2f1g contracted to 6s4p3d1f1g pattern {711111/2111/211/2/1}
 Group   3 Type H   : 5s2p1d contracted to 3s1p1d pattern {311/2/1}

Atom   0O    basis set group =>   1
Atom   1C    basis set group =>   2
Atom   2O    basis set group =>   1
Atom   3C    basis set group =>   2
Atom   4H    basis set group =>   3
Atom   5H    basis set group =>   3
Atom   6H    basis set group =>   3
Atom   7H    basis set group =>   3


           ************************************************************
           *        Program running with 4 parallel MPI-processes     *
           *              working on a common directory               *
           ************************************************************
------------------------------------------------------------------------------
                             ORCA STARTUP CALCULATIONS
                           -- RI-GTO INTEGRALS CHOSEN --
------------------------------------------------------------------------------
------------------------------------------------------------------------------
                   ___                                                        
                  /   \      - P O W E R E D   B Y -                         
                 /     \                                                     
                 |  |  |   _    _      __       _____    __    __             
                 |  |  |  | |  | |    /  \     |  _  \  |  |  /  |          
                  \  \/   | |  | |   /    \    | | | |  |  | /  /          
                 / \  \   | |__| |  /  /\  \   | |_| |  |  |/  /          
                |  |  |   |  __  | /  /__\  \  |    /   |      \           
                |  |  |   | |  | | |   __   |  |    \   |  |\   \          
                \     /   | |  | | |  |  |  |  | |\  \  |  | \   \       
                 \___/    |_|  |_| |__|  |__|  |_| \__\ |__|  \__/        
                                                                              
                      - O R C A' S   B I G   F R I E N D -                    
                                      &                                       
                       - I N T E G R A L  F E E D E R -                       
                                                                              
 v1 FN, 2020, v2 2021, v3 2022-2024                                           
------------------------------------------------------------------------------


----------------------
SHARK INTEGRAL PACKAGE
----------------------

Number of atoms                             ...      8
Number of basis functions                   ...     64
Number of shells                            ...     32
Maximum angular momentum                    ...      2
Integral batch strategy                     ... SHARK/LIBINT Hybrid
RI-J (if used) integral strategy            ... SPLIT-RIJ (Revised 2003 algorithm where possible)
Printlevel                                  ...      1
Contraction scheme used                     ... SEGMENTED contraction
Prescreening option                         ... SCHWARTZ
   Thresh                                   ... 2.500e-11
   Tcut                                     ... 2.500e-12
   Tpresel                                  ... 2.500e-12 
Coulomb Range Separation                    ... NOT USED
Exchange Range Separation                   ... NOT USED
Multipole approximations                    ... NOT USED
Finite Nucleus Model                        ... NOT USED
CABS basis                                  ... NOT available
Auxiliary Coulomb fitting basis             ... AVAILABLE
   # of basis functions in Aux-J            ...    240
   # of shells in Aux-J                     ...     80
   Maximum angular momentum in Aux-J        ...      4
Auxiliary J/K fitting basis                 ... NOT available
Auxiliary Correlation fitting basis         ... NOT available
Auxiliary 'external' fitting basis          ... NOT available

Checking pre-screening integrals            ... done (  0.0 sec) Dimension = 32
Check shell pair data                       ... done (  0.0 sec)
Shell pair information
Shell pair cut-off parameter TPreSel        ...   2.5e-12
Total number of shell pairs                 ...       528
Shell pairs after pre-screening             ...       525
Total number of primitive shell pairs       ...      2144
Primitive shell pairs kept                  ...      1725
          la=0 lb=0:    207 shell pairs
          la=1 lb=0:    160 shell pairs
          la=1 lb=1:     36 shell pairs
          la=2 lb=0:     80 shell pairs
          la=2 lb=1:     32 shell pairs
          la=2 lb=2:     10 shell pairs

Calculating one electron integrals          ... done (  0.0 sec)
Calculating RI/J V-Matrix + Cholesky decomp.... done (  0.1 sec)
Calculating Nuclear repulsion               ... done (  0.0 sec) ENN=    121.529564055965 Eh

Diagonalization of the overlap matrix:
Smallest eigenvalue                        ... 4.078e-03
Time for diagonalization                   ...    0.001 sec
Threshold for overlap eigenvalues          ... 1.000e-07
Number of eigenvalues below threshold      ... 0
Time for construction of square roots      ...    0.009 sec
Total time needed                          ...    0.031 sec

-------------------
DFT GRID GENERATION
-------------------

General Integration Accuracy     IntAcc      ... 4.388
Radial Grid Type                 RadialGrid  ... OptM3 with GC (2021)
Angular Grid (max. ang.)         AngularGrid ... 4 (Lebedev-302)
Angular grid pruning method      GridPruning ... 4 (adaptive)
Weight generation scheme         WeightScheme... mBecke (2022)
Basis function cutoff            BFCut       ... 1.0000e-11
Integration weight cutoff        WCut        ... 1.0000e-14
Partially contracted basis set               ... off
Rotationally invariant grid construction     ... off
Angular grids for H and He will be reduced by one unit

Total number of grid points                  ...    37411
Total number of batches                      ...      589
Average number of points per batch           ...       63
Average number of grid points per atom       ...     4676

--------------------
COSX GRID GENERATION
--------------------

GRIDX 1
-------
General Integration Accuracy     IntAcc      ... 3.816
Radial Grid Type                 RadialGrid  ... OptM3 with GC (2021)
Angular Grid (max. ang.)         AngularGrid ... 1 (Lebedev-50)
Angular grid pruning method      GridPruning ... 4 (adaptive)
Weight generation scheme         WeightScheme... mBecke (2022)
Basis function cutoff            BFCut       ... 1.0000e-11
Integration weight cutoff        WCut        ... 1.0000e-14
Partially contracted basis set               ... on
Rotationally invariant grid construction     ... off
Angular grids for H and He will be reduced by one unit

Total number of grid points                  ...     4795
Total number of batches                      ...       42
Average number of points per batch           ...      114
Average number of grid points per atom       ...      599
UseSFitting                                  ... on

GRIDX 2
-------
General Integration Accuracy     IntAcc      ... 4.020
Radial Grid Type                 RadialGrid  ... OptM3 with GC (2021)
Angular Grid (max. ang.)         AngularGrid ... 2 (Lebedev-110)
Angular grid pruning method      GridPruning ... 4 (adaptive)
Weight generation scheme         WeightScheme... mBecke (2022)
Basis function cutoff            BFCut       ... 1.0000e-11
Integration weight cutoff        WCut        ... 1.0000e-14
Partially contracted basis set               ... on
Rotationally invariant grid construction     ... off
Angular grids for H and He will be reduced by one unit

Total number of grid points                  ...    10551
Total number of batches                      ...       87
Average number of points per batch           ...      121
Average number of grid points per atom       ...     1319
UseSFitting                                  ... on

GRIDX 3
-------
General Integration Accuracy     IntAcc      ... 4.338
Radial Grid Type                 RadialGrid  ... OptM3 with GC (2021)
Angular Grid (max. ang.)         AngularGrid ... 3 (Lebedev-194)
Angular grid pruning method      GridPruning ... 4 (adaptive)
Weight generation scheme         WeightScheme... mBecke (2022)
Basis function cutoff            BFCut       ... 1.0000e-11
Integration weight cutoff        WCut        ... 1.0000e-14
Partially contracted basis set               ... on
Rotationally invariant grid construction     ... off
Angular grids for H and He will be reduced by one unit

Total number of grid points                  ...    23332
Total number of batches                      ...      186
Average number of points per batch           ...      125
Average number of grid points per atom       ...     2916
UseSFitting                                  ... on
Initializing property integral containers    ... done (  0.1 sec)

SHARK setup successfully completed in   1.6 seconds

Maximum memory used throughout the entire STARTUP-calculation: 11.7 MB


           ************************************************************
           *        Program running with 4 parallel MPI-processes     *
           *              working on a common directory               *
           ************************************************************
-------------------------------------------------------------------------------
                                 ORCA GUESS
                   Start orbitals & Density for SCF / CASSCF
-------------------------------------------------------------------------------

------------
SCF SETTINGS
------------
Hamiltonian:
 Density Functional     Method          .... DFT(GTOs)
 Exchange Functional    Exchange        .... PBE
   PBE kappa parameter   XKappa         ....  0.804000
   PBE mue parameter    XMuePBE         ....  0.219520
 Correlation Functional Correlation     .... PBE
   PBE beta parameter  CBetaPBE         ....  0.066725
 LDA part of GGA corr.  LDAOpt          .... PW91-LDA
 Gradients option       PostSCFGGA      .... off
 Hybrid DFT is turned on
   Fraction HF Exchange ScalHFX         ....  0.250000
   Scaling of DF-GGA-X  ScalDFX         ....  0.750000
   Scaling of DF-GGA-C  ScalDFC         ....  1.000000
   Scaling of DF-LDA-C  ScalLDAC        ....  1.000000
   Perturbative correction              ....  0.000000
   NL short-range parameter             ....  6.900000
 RI-approximation to the Coulomb term is turned on
   Number of AuxJ basis functions       .... 240
   RIJ-COSX (HFX calculated with COS-X)).... on


General Settings:
 Integral files         IntName         .... CS_PdOAc_006_opt_01
 Hartree-Fock type      HFTyp           .... RHF
 Total Charge           Charge          ....    0
 Multiplicity           Mult            ....    1
 Number of Electrons    NEL             ....   32
 Basis Dimension        Dim             ....   64
 Nuclear Repulsion      ENuc            ....    121.5295640560 Eh

Convergence Acceleration:
 AO-DIIS                CNVDIIS         .... on
   Start iteration      DIISMaxIt       ....     0
   Startup error        DIISStart       ....  0.200000
   # of expansion vecs  DIISMaxEq       ....     5
   Bias factor          DIISBfac        ....   1.050
   Max. coefficient     DIISMaxC        ....  10.000
 MO-DIIS                CNVKDIIS        .... off
 Trust-Rad. Augm. Hess. CNVTRAH         .... auto
   Auto Start mean grad. ratio tolernc. ....  1.125000
   Auto Start start iteration           ....    50
   Auto Start num. interpolation iter.  ....    10
   Max. Number of Micro iterations      ....    24
   Max. Number of Macro iterations      .... Maxiter - #DIIS iter
   Number of Davidson start vectors     ....     2
   Converg. threshold    (grad. norm)   ....   1.000e-05
   Grad. Scal. Fac. for Micro threshold ....   0.100
   Minimum threshold for Micro iter.    ....   1.000e-02
   NR start threshold (gradient norm)   ....   1.000e-04
   Initial trust radius                 ....   0.400
   Minimum AH scaling param. (alpha)    ....   1.000
   Maximum AH scaling param. (alpha)    .... 1000.000
   Quad. conv. algorithm                .... NR
   White noise on init. David. guess    .... on
   Maximum white noise                  ....   0.010
   Pseudo random numbers                .... off
   Inactive MOs                         .... canonical
   Orbital update algorithm             .... Taylor
   Preconditioner                       .... Diag
   Full preconditioner red. dimension   ....   250
 SOSCF                  CNVSOSCF        .... on
   Start iteration      SOSCFMaxIt      ....   150
   Startup grad/error   SOSCFStart      ....  0.001000
   Hessian update       SOSCFHessUp     .... L-BFGS
 Level Shifting         CNVShift        .... on
   Level shift para.    LevelShift      ....    0.2500
   Turn off err/grad.   ShiftErr        ....    0.0000
 Zerner damping         CNVZerner       .... off
 Static damping         CNVDamp         .... on
   Fraction old density DampFac         ....    0.8500
   Max. Damping (<1)    DampMax         ....    0.9800
   Min. Damping (>=0)   DampMin         ....    0.0000
   Turn off err/grad.   DampErr         ....    0.0300

SCF Procedure:
 Maximum # iterations   MaxIter         ....  1500
 SCF integral mode      SCFMode         .... Direct
   Integral package                     .... SHARK and LIBINT hybrid scheme
 Reset frequency        DirectResetFreq ....    20
 Integral Threshold     Thresh          ....  2.500e-11 Eh
 Primitive CutOff       TCut            ....  2.500e-12 Eh

Convergence Tolerance:
 Convergence Check Mode ConvCheckMode   .... Total+1el-Energy
 Convergence forced     ConvForced      .... 0
 Energy Change          TolE            ....  1.000e-08 Eh
 1-El. energy change                    ....  1.000e-05 Eh
 Orbital Gradient       TolG            ....  1.000e-05
 Orbital Rotation angle TolX            ....  1.000e-05
 DIIS Error             TolErr          ....  5.000e-07

------------------------------
INITIAL GUESS: MODEL POTENTIAL
------------------------------
Loading Hartree-Fock densities                     ... done
Calculating cut-offs                               ... done
Initializing the effective Hamiltonian             ... done
Setting up the integral package (SHARK)            ... done
Starting the Coulomb interaction                   ... done (   0.1 sec)
Making the grid                                    ... done (   0.1 sec)
Mapping shells                                     ... done
Starting the XC term evaluation                    ... done (   0.0 sec)
  promolecular density results
     # of electrons  =     31.999001390
     EX              =    -27.715038552
     EC              =     -1.056071942
     EX+EC           =    -28.771110494
Transforming the Hamiltonian                       ... done (   0.0 sec)
Diagonalizing the Hamiltonian                      ... done (   0.0 sec)
Back transforming the eigenvectors                 ... done (   0.0 sec)
Now organizing SCF variables                       ... done
                      ------------------
                      INITIAL GUESS DONE (   0.3 sec)
                      ------------------
             **** ENERGY FILE WAS UPDATED (CS_PdOAc_006_opt_01.en.tmp) ****
Finished Guess after   0.8 sec
Maximum memory used throughout the entire GUESS-calculation: 6.7 MB


           ************************************************************
           *        Program running with 4 parallel MPI-processes     *
           *              working on a common directory               *
           ************************************************************

-------------------------------------------------------------------------------------------
                                      ORCA LEAN-SCF
                              memory conserving SCF solver
-------------------------------------------------------------------------------------------

----------------------------------------D-I-I-S--------------------------------------------
Iteration    Energy (Eh)           Delta-E    RMSDP     MaxDP     DIISErr   Damp  Time(sec)
-------------------------------------------------------------------------------------------
               ***  Starting incremental Fock matrix formation  ***
    1    -228.4073030470743788     0.00e+00  4.23e-03  4.68e-02  2.70e-01  0.850   0.9
    2    -228.4588174627584749    -5.15e-02  4.05e-03  4.43e-02  1.85e-01  0.850   0.9
                               ***Turning on AO-DIIS***
    3    -228.4900913148277937    -3.13e-02  1.87e-03  2.07e-02  1.11e-01  0.850   1.3
    4    -228.5095060708601409    -1.94e-02  1.12e-03  1.37e-02  8.69e-02  0.850   2.4
    5    -228.5233570174418105    -1.39e-02  7.95e-04  9.58e-03  7.41e-02  0.850   2.0
    6    -228.5342494112725831    -1.09e-02  6.38e-04  7.07e-03  6.39e-02  0.850   1.0
    7    -228.5432091006062478    -8.96e-03  5.57e-04  6.57e-03  5.37e-02  0.850   1.1
    8    -228.5506477749595433    -7.44e-03  4.65e-04  5.20e-03  4.35e-02  0.850   3.3
    9    -228.5567518122761044    -6.10e-03  3.87e-04  4.73e-03  3.60e-02  0.850   0.9
   10    -228.5617869582973753    -5.04e-03  3.23e-04  3.98e-03  3.04e-02  0.850   2.1
   11    -228.5659729950928067    -4.19e-03  2.71e-04  3.20e-03  2.58e-02  0.850   0.9
   12    -228.5694731817006868    -3.50e-03  1.53e-03  1.74e-02  2.16e-02  0.000   0.8
   13    -228.5882801911889146    -1.88e-02  1.80e-04  2.52e-03  3.34e-03  0.000   0.8
   14    -228.5882932703808592    -1.31e-05  5.77e-05  6.60e-04  1.25e-03  0.000   0.9
                              *** Initializing SOSCF ***
---------------------------------------S-O-S-C-F--------------------------------------
Iteration    Energy (Eh)           Delta-E    RMSDP     MaxDP     MaxGrad    Time(sec)
--------------------------------------------------------------------------------------
   15    -228.5882979136493418    -4.64e-06  1.36e-05  1.30e-04  2.23e-04     1.0
               *** Restarting incremental Fock matrix formation ***
   16    -228.5882566653301637     4.12e-05  1.85e-05  1.53e-04  4.42e-05     0.9
   17    -228.5882566732913119    -7.96e-09  9.12e-06  9.08e-05  5.38e-05     1.6
                 **** Energy Check signals convergence ****

               *****************************************************
               *                     SUCCESS                       *
               *           SCF CONVERGED AFTER  17 CYCLES          *
               *****************************************************

Recomputing exchange energy using gridx3       ... done (    0.395 sec)
Old exchange energy                            :     -7.051226552 Eh
New exchange energy                            :     -7.051229332 Eh
Exchange energy change after final integration :     -0.000002780 Eh
Total energy after final integration           :   -228.588259453 Eh
             **** ENERGY FILE WAS UPDATED (CS_PdOAc_006_opt_01.en.tmp) ****

----------------
TOTAL SCF ENERGY
----------------

Total Energy       :       -228.58825945346700 Eh           -6220.20277 eV

Components:
Nuclear Repulsion  :        121.52956405596490 Eh            3306.98756 eV
Electronic Energy  :       -350.11782072925621 Eh           -9527.19026 eV
One Electron Energy:       -552.76248820973240 Eh          -15041.43200 eV
Two Electron Energy:        202.64466748047619 Eh            5514.24174 eV

Virial components:
Potential Energy   :       -455.52611765876929 Eh          -12395.49584 eV
Kinetic Energy     :        226.93785820530226 Eh            6175.29307 eV
Virial Ratio       :          2.00727248093913

DFT components:
N(Alpha)           :       15.999997922526 electrons
N(Beta)            :       15.999997922526 electrons
N(Total)           :       31.999995845053 electrons
E(X)               :      -21.132619632429 Eh       
E(C)               :       -1.074703385813 Eh       
E(XC)              :      -22.207323018242 Eh       

---------------
SCF CONVERGENCE
---------------

  Last Energy change         ...    7.9611e-09  Tolerance :   1.0000e-08
  Last MAX-Density change    ...    9.0797e-05  Tolerance :   1.0000e-07
  Last RMS-Density change    ...    9.1207e-06  Tolerance :   5.0000e-09
  Last DIIS Error            ...    2.2316e-04  Tolerance :   5.0000e-07
  Last Orbital Gradient      ...    5.3772e-05  Tolerance :   1.0000e-05
  Last Orbital Rotation      ...    5.0918e-05  Tolerance :   1.0000e-05


----------------
ORBITAL ENERGIES
----------------

  NO   OCC          E(Eh)            E(eV) 
   0   2.0000     -19.251913      -523.8712 
   1   2.0000     -19.166573      -521.5490 
   2   2.0000     -10.368086      -282.1300 
   3   2.0000     -10.222837      -278.1775 
   4   2.0000      -1.129296       -30.7297 
   5   2.0000      -0.998347       -27.1664 
   6   2.0000      -0.772489       -21.0205 
   7   2.0000      -0.714511       -19.4428 
   8   2.0000      -0.503465       -13.7000 
   9   2.0000      -0.488583       -13.2950 
  10   2.0000      -0.466073       -12.6825 
  11   2.0000      -0.416000       -11.3199 
  12   2.0000      -0.407993       -11.1020 
  13   2.0000      -0.336717        -9.1625 
  14   2.0000      -0.310660        -8.4535 
  15   2.0000      -0.261022        -7.1028 
  16   0.0000       0.029842         0.8121 
  17   0.0000       0.030161         0.8207 
  18   0.0000       0.093584         2.5466 
  19   0.0000       0.146346         3.9823 
  20   0.0000       0.156986         4.2718 
  21   0.0000       0.233498         6.3538 
  22   0.0000       0.278876         7.5886 
  23   0.0000       0.359005         9.7690 
  24   0.0000       0.382088        10.3971 
  25   0.0000       0.470705        12.8085 
  26   0.0000       0.542723        14.7682 
*Only the first 10 virtual orbitals were printed.

                    ********************************
                    * MULLIKEN POPULATION ANALYSIS *
                    ********************************

-----------------------
MULLIKEN ATOMIC CHARGES
-----------------------
   0 O :   -0.392787
   1 C :    0.239786
   2 O :   -0.309948
   3 C :   -0.364582
   4 H :    0.148136
   5 H :    0.125116
   6 H :    0.154279
   7 H :    0.400000
Sum of atomic charges:   -0.0000000

--------------------------------
MULLIKEN REDUCED ORBITAL CHARGES
--------------------------------
  0 O s       :     3.594722  s :     3.594722
      pz      :     1.742801  p :     4.788013
      px      :     1.496888
      py      :     1.548323
      dz2     :     0.001177  d :     0.010051
      dxz     :     0.001916
      dyz     :     0.001566
      dx2y2   :     0.001693
      dxy     :     0.003700

  1 C s       :     3.063040  s :     3.063040
      pz      :     0.872007  p :     2.548259
      px      :     0.822112
      py      :     0.854140
      dz2     :     0.018793  d :     0.148914
      dxz     :     0.037007
      dyz     :     0.013629
      dx2y2   :     0.035448
      dxy     :     0.044038

  2 O s       :     3.789774  s :     3.789774
      pz      :     1.558148  p :     4.503962
      px      :     1.317125
      py      :     1.628688
      dz2     :     0.002081  d :     0.016212
      dxz     :     0.004629
      dyz     :     0.000345
      dx2y2   :     0.005330
      dxy     :     0.003827

  3 C s       :     3.131678  s :     3.131678
      pz      :     1.066253  p :     3.203469
      px      :     1.077206
      py      :     1.060010
      dz2     :     0.006422  d :     0.029435
      dxz     :     0.002322
      dyz     :     0.007963
      dx2y2   :     0.004629
      dxy     :     0.008099

  4 H s       :     0.851864  s :     0.851864

  5 H s       :     0.874884  s :     0.874884

  6 H s       :     0.845721  s :     0.845721

  7 H s       :     0.600000  s :     0.600000



                     *******************************
                     * LOEWDIN POPULATION ANALYSIS *
                     *******************************

----------------------
LOEWDIN ATOMIC CHARGES
----------------------
   0 O :   -0.243377
   1 C :    0.074787
   2 O :   -0.246539
   3 C :   -0.372752
   4 H :    0.145205
   5 H :    0.128854
   6 H :    0.143375
   7 H :    0.370446

-------------------------------
LOEWDIN REDUCED ORBITAL CHARGES
-------------------------------
  0 O s       :     3.347424  s :     3.347424
      pz      :     1.728685  p :     4.877164
      px      :     1.560518
      py      :     1.587961
      dz2     :     0.002177  d :     0.018789
      dxz     :     0.003391
      dyz     :     0.003310
      dx2y2   :     0.003998
      dxy     :     0.005912

  1 C s       :     2.836600  s :     2.836600
      pz      :     0.900320  p :     2.757635
      px      :     0.967230
      py      :     0.890084
      dz2     :     0.041395  d :     0.330978
      dxz     :     0.078111
      dyz     :     0.030087
      dx2y2   :     0.083873
      dxy     :     0.097512

  2 O s       :     3.586527  s :     3.586527
      pz      :     1.565130  p :     4.632631
      px      :     1.437347
      py      :     1.630154
      dz2     :     0.003620  d :     0.027380
      dxz     :     0.007281
      dyz     :     0.000424
      dx2y2   :     0.011103
      dxy     :     0.004952

  3 C s       :     2.963524  s :     2.963524
      pz      :     1.106368  p :     3.339876
      px      :     1.126440
      py      :     1.107068
      dz2     :     0.015280  d :     0.069352
      dxz     :     0.005599
      dyz     :     0.019439
      dx2y2   :     0.009648
      dxy     :     0.019386

  4 H s       :     0.854795  s :     0.854795

  5 H s       :     0.871146  s :     0.871146

  6 H s       :     0.856625  s :     0.856625

  7 H s       :     0.629554  s :     0.629554



                      *****************************
                      * MAYER POPULATION ANALYSIS *
                      *****************************

  NA   - Mulliken gross atomic population
  ZA   - Total nuclear charge
  QA   - Mulliken gross atomic charge
  VA   - Mayer's total valence
  BVA  - Mayer's bonded valence
  FA   - Mayer's free valence

  ATOM       NA         ZA         QA         VA         BVA        FA
  0 O      8.3928     8.0000    -0.3928     1.9775     1.9775    -0.0000
  1 C      5.7602     6.0000     0.2398     4.3065     4.3065     0.0000
  2 O      8.3099     8.0000    -0.3099     2.1672     2.1672    -0.0000
  3 C      6.3646     6.0000    -0.3646     3.8681     3.8681    -0.0000
  4 H      0.8519     1.0000     0.1481     0.9491     0.9491    -0.0000
  5 H      0.8749     1.0000     0.1251     0.9561     0.9561    -0.0000
  6 H      0.8457     1.0000     0.1543     0.9696     0.9696     0.0000
  7 H      0.6000     1.0000     0.4000     0.8316     0.8316     0.0000

  Mayer bond orders larger than 0.100000
B(  0-O ,  1-C ) :   1.1314 B(  0-O ,  7-H ) :   0.7551 B(  1-C ,  2-O ) :   2.0372 
B(  1-C ,  3-C ) :   1.0685 B(  3-C ,  4-H ) :   0.9316 B(  3-C ,  5-H ) :   0.9394 
B(  3-C ,  6-H ) :   0.9510 

-------
TIMINGS
-------

Total SCF time: 0 days 0 hours 0 min 25 sec 

Total time                  ....      25.068 sec
Sum of individual times     ....      23.712 sec  ( 94.6%)

SCF preparation             ....       0.527 sec  (  2.1%)
Fock matrix formation       ....      15.224 sec  ( 60.7%)
  Startup                   ....       0.854 sec  (  5.6% of F)
  Split-RI-J                ....       3.291 sec  ( 21.6% of F)
  Chain of spheres X        ....       5.837 sec  ( 38.3% of F)
  XC integration            ....       2.717 sec  ( 17.8% of F)
    XC Preparation          ....       0.000 sec  (  0.0% of XC)
    Basis function eval.    ....       0.483 sec  ( 17.8% of XC)
    Density eval.           ....       0.173 sec  (  6.4% of XC)
    XC-Functional eval.     ....       0.180 sec  (  6.6% of XC)
    XC-Potential eval.      ....       0.178 sec  (  6.5% of XC)
Diagonalization             ....       0.000 sec  (  0.0%)
Density matrix formation    ....       1.456 sec  (  5.8%)
Total Energy calculation    ....       0.685 sec  (  2.7%)
Population analysis         ....       0.167 sec  (  0.7%)
Orbital Transformation      ....       0.127 sec  (  0.5%)
Orbital Orthonormalization  ....       0.000 sec  (  0.0%)
DIIS solution               ....       5.312 sec  ( 21.2%)
SOSCF solution              ....       0.213 sec  (  0.9%)
Finished LeanSCF after  25.2 sec

Maximum memory used throughout the entire LEANSCF-calculation: 7.8 MB


-------------------------------------------------------------------------------
                          DFT DISPERSION CORRECTION                            
                                                                               
                              DFTD3 V3.1  Rev 1                                
                          USING Becke-Johnson damping                          
-------------------------------------------------------------------------------
The PBE0 functional is recognized
Active option DFTDOPT                   ...         4   

molecular C6(AA) [au] = 530.336886 


            DFT-D V3
 parameters
 s6 scaling factor         :     1.0000 
 a1 scaling factor         :     0.4145 
 s8 scaling factor         :     1.2177 
 a2 scaling factor         :     4.8593 
 ad hoc parameters k1-k3   :    16.0000     1.3333    -4.0000 

 Edisp/kcal,au: -2.151365205837  -0.003428418319 
 E6   /kcal   :  -1.394111128 
 E8   /kcal   :  -0.757254078 
 % E8         :  35.198769395 

-------------------------   ----------------
Dispersion correction           -0.003428418
-------------------------   ----------------


-------------------------   --------------------
FINAL SINGLE POINT ENERGY      -228.591687871786
-------------------------   --------------------



           ************************************************************
           *        Program running with 4 parallel MPI-processes     *
           *              working on a common directory               *
           ************************************************************
------------------------------------------------------------------------------
                         ORCA SCF GRADIENT CALCULATION
------------------------------------------------------------------------------

Nuc. rep. gradient        (SHARK) ... done (  0.0 sec)
HCore & Overlap gradient  (SHARK) ... done (  0.0 sec)
Split-RIJ-J gradient      (SHARK) ... done (  0.3 sec)
COSX-gradient                     ... done (  1.3 sec)
XC gradient                       ... done (  0.4 sec)
Dispersion correction             ... done (  0.1 sec)

-------------------
DISPERSION GRADIENT
-------------------

   1   O   :   -0.000023621    0.000057572   -0.000047793
   2   C   :    0.000012739    0.000006753   -0.000010132
   3   O   :    0.000092056    0.000016380   -0.000043466
   4   C   :    0.000004857   -0.000039195    0.000035081
   5   H   :   -0.000009583   -0.000021314    0.000059705
   6   H   :   -0.000034073   -0.000046477    0.000028510
   7   H   :    0.000011438   -0.000046516    0.000030175
   8   H   :   -0.000053813    0.000072796   -0.000052080

Difference to translation invariance:
           :   -0.0000000000    0.0000000000   -0.0000000000

Difference to rotation invariance:
           :    0.0000000000   -0.0000000000   -0.0000000000

Norm of the Dispersion gradient    ...    0.0002055400
RMS gradient                       ...    0.0000419557
MAX gradient                       ...    0.0000920561

------------------
CARTESIAN GRADIENT
------------------

   1   O   :    0.047433861   -0.041351486    0.023209342
   2   C   :   -0.122350851    0.052211596   -0.011537109
   3   O   :    0.071028942   -0.014374353   -0.006804582
   4   C   :    0.007135086   -0.008587397    0.005974370
   5   H   :    0.001875220   -0.003128615   -0.009438698
   6   H   :    0.010306134    0.005810191   -0.000367935
   7   H   :   -0.006085285    0.005274654    0.000080095
   8   H   :   -0.009343107    0.004145410   -0.001115483

Difference to translation invariance:
           :    0.0000000001    0.0000000000   -0.0000000001

Difference to rotation invariance:
           :    0.0000191528    0.0000082130    0.0000751659

Norm of the Cartesian gradient     ...    0.1679254075
RMS gradient                       ...    0.0342776303
MAX gradient                       ...    0.1223508508

-------
TIMINGS
-------

Total SCF gradient time     ....        2.109 sec

Densities                   ....       0.000 sec  (  0.0%)
One electron gradient       ....       0.016 sec  (  0.8%)
RI-J Coulomb gradient       ....       0.314 sec  ( 14.9%)
COSX gradient               ....       1.343 sec  ( 63.7%)
XC gradient                 ....       0.355 sec  ( 16.8%)

Maximum memory used throughout the entire SCFGRAD-calculation: 26.0 MB
------------------------------------------------------------------------------
                         ORCA GEOMETRY RELAXATION STEP
------------------------------------------------------------------------------

Reading the OPT-File                    .... done
Getting information on internals        .... done
Copying old internal coords+grads       .... done
Making the new internal coordinates     .... (2022 redundants) done
Validating the new internal coordinates .... (2022 redundants) done
Calculating the B-matrix                .... done
Calculating the G,G- and P matrices     .... done
Transforming gradient to internals      .... done
Projecting the internal gradient        .... done
Number of atoms                         ....   8
Number of internal coordinates          ....  24
Current Energy                          ....  -228.591687872 Eh
Current gradient norm                   ....     0.167925408 Eh/bohr
Maximum allowed component of the step   ....  0.300
Current trust radius                    ....  0.300
Evaluating the initial hessian          ....  (Almloef) done
Projecting the Hessian                  .... done
Forming the augmented Hessian           .... done
Diagonalizing the augmented Hessian     .... done
Last element of RFO vector              ....  0.991186056
Lowest eigenvalues of augmented Hessian:
 -0.012249499  0.012276092  0.012331017  0.135422894  0.142523514
Length of the computed step             ....  0.133655209
The final length of the internal step   ....  0.133655209
Converting the step to Cartesian space:
 Initial RMS(Int)=    0.0272822552
Transforming coordinates:
 Iter   0:  RMS(Cart)=    0.0274395683 RMS(Int)=    0.0272465558
 Iter   5:  RMS(Cart)=    0.0000021388 RMS(Int)=    0.0000031427
 Iter  10:  RMS(Cart)=    0.0000000576 RMS(Int)=    0.0000000846
done
Storing new coordinates                 .... done

                                .--------------------.
          ----------------------|Geometry convergence|-------------------------
          Item                value                   Tolerance       Converged
          ---------------------------------------------------------------------
          RMS gradient        0.0201461927            0.0001000000      NO
          MAX gradient        0.0705078204            0.0003000000      NO
          RMS step            0.0272822552            0.0020000000      NO
          MAX step            0.0758584596            0.0040000000      NO
          ........................................................
          Max(Bonds)      0.0401      Max(Angles)    2.91
          Max(Dihed)        0.83      Max(Improp)    0.00
          ---------------------------------------------------------------------

The optimization has not yet converged - more geometry cycles are needed


    ---------------------------------------------------------------------------
                         Redundant Internal Coordinates
                            (Angstroem and degrees)

        Definition                    Value    dE/dq     Step     New-Value
    ----------------------------------------------------------------------------
     1. B(C   1,O   0)                1.2553 -0.057525  0.0327    1.2880   
     2. B(O   2,C   1)                1.2555  0.070508 -0.0401    1.2154   
     3. B(C   3,C   1)                1.5067 -0.006004  0.0076    1.5143   
     4. B(H   4,C   3)                1.0909 -0.009875  0.0141    1.1050   
     5. B(H   5,C   3)                1.0873 -0.011338  0.0160    1.1033   
     6. B(H   6,C   3)                1.0857 -0.007961  0.0111    1.0969   
     7. B(H   7,O   0)                0.9600  0.009546 -0.0095    0.9505   
     8. L(C   1,O   0,H   7,C   3, 1) 180.00 -0.006918    0.97    180.97   
     9. L(C   1,O   0,H   7,C   3, 2) 180.00  0.000045   -0.01    179.99   
    10. A(O   2,C   1,C   3)          116.85 -0.023320    2.91    119.76   
    11. A(O   0,C   1,C   3)          116.34  0.003752   -0.61    115.73   
    12. A(O   0,C   1,O   2)          126.80  0.019572   -2.32    124.48   
    13. A(C   1,C   3,H   6)          110.61  0.003303   -0.59    110.02   
    14. A(H   4,C   3,H   5)          108.08  0.002895   -0.41    107.67   
    15. A(C   1,C   3,H   5)          109.89 -0.005023    0.90    110.79   
    16. A(H   5,C   3,H   6)          111.09  0.001064   -0.20    110.89   
    17. A(H   4,C   3,H   6)          109.15  0.000455   -0.17    108.98   
    18. A(C   1,C   3,H   4)          107.93 -0.002776    0.49    108.42   
    19. D(H   4,C   3,C   1,O   2)    101.23  0.000705   -0.49    100.73   
    20. D(H   5,C   3,C   1,O   0)     40.10 -0.000667    0.83     40.92   
    21. D(H   5,C   3,C   1,O   2)   -141.13 -0.000213   -0.20   -141.33   
    22. D(H   6,C   3,C   1,O   0)    163.11 -0.000524    0.79    163.90   
    23. D(H   6,C   3,C   1,O   2)    -18.11 -0.000070   -0.24    -18.36   
    24. D(H   4,C   3,C   1,O   0)    -77.55  0.000251    0.54    -77.01   
    ----------------------------------------------------------------------------

Geometry step timings:
Preparation and reading OPT file:      0.003 s ( 8.631 %)
Internal coordinates            :      0.000 s ( 0.127 %)
B/P matrices and projection     :      0.000 s ( 0.913 %)
Hessian update/contruction      :      0.015 s (50.841 %)
Making the step                 :      0.000 s ( 0.565 %)
Converting the step to Cartesian:      0.000 s ( 0.425 %)
Storing new data                :      0.005 s (16.991 %)
Checking convergence            :      0.000 s ( 0.017 %)
Final printing                  :      0.006 s (21.444 %)
Total time                      :      0.030 s

Time for energy+gradient        :     36.283 s
Time for complete geometry iter :     38.317 s

         *************************************************************
         *                GEOMETRY OPTIMIZATION CYCLE   2            *
         *************************************************************
---------------------------------
CARTESIAN COORDINATES (ANGSTROEM)
---------------------------------
  O     -0.001897    0.012537   -0.010163
  C      0.907536   -0.781521    0.438498
  O      2.073959   -0.753747    0.098256
  C      0.456928   -1.765039    1.498040
  H      0.367233   -1.226455    2.458679
  H     -0.535984   -2.178173    1.251773
  H      1.198115   -2.566357    1.606181
  H     -0.662141    0.605318   -0.350980

----------------------------
CARTESIAN COORDINATES (A.U.)
----------------------------
  NO LB      ZA    FRAG     MASS         X           Y           Z
   0 O     8.0000    0    15.999   -0.003585    0.023692   -0.019206
   1 C     6.0000    0    12.011    1.714995   -1.476861    0.828642
   2 O     8.0000    0    15.999    3.919215   -1.424375    0.185676
   3 C     6.0000    0    12.011    0.863468   -3.335440    2.830885
   4 H     1.0000    0     1.008    0.693970   -2.317664    4.646230
   5 H     1.0000    0     1.008   -1.012862   -4.116150    2.365509
   6 H     1.0000    0     1.008    2.264110   -4.849711    3.035242
   7 H     1.0000    0     1.008   -1.251265    1.143885   -0.663256

--------------------------------
INTERNAL COORDINATES (ANGSTROEM)
--------------------------------
 O      0   0   0     0.000000000000     0.00000000     0.00000000
 C      1   0   0     1.287981156159     0.00000000     0.00000000
 O      2   1   0     1.215351173983   124.47565486     0.00000000
 C      2   1   3     1.514260128050   115.72496326   177.62467076
 H      4   2   1     1.104964184781   108.41451976   282.98667503
 H      4   2   1     1.103267681501   110.78368834    40.92605752
 H      4   2   1     1.096888223789   110.02269255   163.89885628
 H      1   2   3     0.950508728401   179.02960807     2.16590724

---------------------------
INTERNAL COORDINATES (A.U.)
---------------------------
 O      0   0   0     0.000000000000     0.00000000     0.00000000
 C      1   0   0     2.433931650792     0.00000000     0.00000000
 O      2   1   0     2.296680875368   124.47565486     0.00000000
 C      2   1   3     2.861536937531   115.72496326   177.62467076
 H      4   2   1     2.088079697027   108.41451976   282.98667503
 H      4   2   1     2.084873770443   110.78368834    40.92605752
 H      4   2   1     2.072818342484   110.02269255   163.89885628
 H      1   2   3     1.796201184580   179.02960807     2.16590724



           ************************************************************
           *        Program running with 4 parallel MPI-processes     *
           *              working on a common directory               *
           ************************************************************
------------------------------------------------------------------------------
                   ___                                                        
                  /   \      - P O W E R E D   B Y -                         
                 /     \                                                     
                 |  |  |   _    _      __       _____    __    __             
                 |  |  |  | |  | |    /  \     |  _  \  |  |  /  |          
                  \  \/   | |  | |   /    \    | | | |  |  | /  /          
                 / \  \   | |__| |  /  /\  \   | |_| |  |  |/  /          
                |  |  |   |  __  | /  /__\  \  |    /   |      \           
                |  |  |   | |  | | |   __   |  |    \   |  |\   \          
                \     /   | |  | | |  |  |  |  | |\  \  |  | \   \       
                 \___/    |_|  |_| |__|  |__|  |_| \__\ |__|  \__/        
                                                                              
                      - O R C A' S   B I G   F R I E N D -                    
                                      &                                       
                       - I N T E G R A L  F E E D E R -                       
                                                                              
 v1 FN, 2020, v2 2021, v3 2022-2024                                           
------------------------------------------------------------------------------


----------------------
SHARK INTEGRAL PACKAGE
----------------------

Number of atoms                             ...      8
Number of basis functions                   ...     64
Number of shells                            ...     32
Maximum angular momentum                    ...      2
Integral batch strategy                     ... SHARK/LIBINT Hybrid
RI-J (if used) integral strategy            ... SPLIT-RIJ (Revised 2003 algorithm where possible)
Printlevel                                  ...      1
Contraction scheme used                     ... SEGMENTED contraction
Prescreening option                         ... SCHWARTZ
   Thresh                                   ... 2.500e-11
   Tcut                                     ... 2.500e-12
   Tpresel                                  ... 2.500e-12 
Coulomb Range Separation                    ... NOT USED
Exchange Range Separation                   ... NOT USED
Multipole approximations                    ... NOT USED
Finite Nucleus Model                        ... NOT USED
CABS basis                                  ... NOT available
Auxiliary Coulomb fitting basis             ... AVAILABLE
   # of basis functions in Aux-J            ...    240
   # of shells in Aux-J                     ...     80
   Maximum angular momentum in Aux-J        ...      4
Auxiliary J/K fitting basis                 ... NOT available
Auxiliary Correlation fitting basis         ... NOT available
Auxiliary 'external' fitting basis          ... NOT available

Checking pre-screening integrals            ... done (  0.0 sec) Dimension = 32
Check shell pair data                       ... done (  0.0 sec)
Shell pair information
Shell pair cut-off parameter TPreSel        ...   2.5e-12
Total number of shell pairs                 ...       528
Shell pairs after pre-screening             ...       525
Total number of primitive shell pairs       ...      2144
Primitive shell pairs kept                  ...      1722
          la=0 lb=0:    207 shell pairs
          la=1 lb=0:    160 shell pairs
          la=1 lb=1:     36 shell pairs
          la=2 lb=0:     80 shell pairs
          la=2 lb=1:     32 shell pairs
          la=2 lb=2:     10 shell pairs

Calculating one electron integrals          ... done (  0.0 sec)
Calculating RI/J V-Matrix + Cholesky decomp.... done (  0.0 sec)
Calculating Nuclear repulsion               ... done (  0.0 sec) ENN=    121.443454509597 Eh

Diagonalization of the overlap matrix:
Smallest eigenvalue                        ... 4.092e-03
Time for diagonalization                   ...    0.001 sec
Threshold for overlap eigenvalues          ... 1.000e-07
Number of eigenvalues below threshold      ... 0
Time for construction of square roots      ...    0.010 sec
Total time needed                          ...    0.031 sec

-------------------
DFT GRID GENERATION
-------------------

General Integration Accuracy     IntAcc      ... 4.388
Radial Grid Type                 RadialGrid  ... OptM3 with GC (2021)
Angular Grid (max. ang.)         AngularGrid ... 4 (Lebedev-302)
Angular grid pruning method      GridPruning ... 4 (adaptive)
Weight generation scheme         WeightScheme... mBecke (2022)
Basis function cutoff            BFCut       ... 1.0000e-11
Integration weight cutoff        WCut        ... 1.0000e-14
Partially contracted basis set               ... off
Rotationally invariant grid construction     ... off
Angular grids for H and He will be reduced by one unit

Total number of grid points                  ...    37424
Total number of batches                      ...      589
Average number of points per batch           ...       63
Average number of grid points per atom       ...     4678

--------------------
COSX GRID GENERATION
--------------------

GRIDX 1
-------
General Integration Accuracy     IntAcc      ... 3.816
Radial Grid Type                 RadialGrid  ... OptM3 with GC (2021)
Angular Grid (max. ang.)         AngularGrid ... 1 (Lebedev-50)
Angular grid pruning method      GridPruning ... 4 (adaptive)
Weight generation scheme         WeightScheme... mBecke (2022)
Basis function cutoff            BFCut       ... 1.0000e-11
Integration weight cutoff        WCut        ... 1.0000e-14
Partially contracted basis set               ... on
Rotationally invariant grid construction     ... off
Angular grids for H and He will be reduced by one unit

Total number of grid points                  ...     4798
Total number of batches                      ...       42
Average number of points per batch           ...      114
Average number of grid points per atom       ...      600
UseSFitting                                  ... on

GRIDX 2
-------
General Integration Accuracy     IntAcc      ... 4.020
Radial Grid Type                 RadialGrid  ... OptM3 with GC (2021)
Angular Grid (max. ang.)         AngularGrid ... 2 (Lebedev-110)
Angular grid pruning method      GridPruning ... 4 (adaptive)
Weight generation scheme         WeightScheme... mBecke (2022)
Basis function cutoff            BFCut       ... 1.0000e-11
Integration weight cutoff        WCut        ... 1.0000e-14
Partially contracted basis set               ... on
Rotationally invariant grid construction     ... off
Angular grids for H and He will be reduced by one unit

Total number of grid points                  ...    10560
Total number of batches                      ...       87
Average number of points per batch           ...      121
Average number of grid points per atom       ...     1320
UseSFitting                                  ... on

GRIDX 3
-------
General Integration Accuracy     IntAcc      ... 4.338
Radial Grid Type                 RadialGrid  ... OptM3 with GC (2021)
Angular Grid (max. ang.)         AngularGrid ... 3 (Lebedev-194)
Angular grid pruning method      GridPruning ... 4 (adaptive)
Weight generation scheme         WeightScheme... mBecke (2022)
Basis function cutoff            BFCut       ... 1.0000e-11
Integration weight cutoff        WCut        ... 1.0000e-14
Partially contracted basis set               ... on
Rotationally invariant grid construction     ... off
Angular grids for H and He will be reduced by one unit

Total number of grid points                  ...    23334
Total number of batches                      ...      188
Average number of points per batch           ...      124
Average number of grid points per atom       ...     2917
UseSFitting                                  ... on
Initializing property integral containers    ... done (  0.1 sec)

SHARK setup successfully completed in   1.1 seconds

Maximum memory used throughout the entire STARTUP-calculation: 11.7 MB


           ************************************************************
           *        Program running with 4 parallel MPI-processes     *
           *              working on a common directory               *
           ************************************************************
Occupation numbers will be reassigned to an Aufbau configuration
             **** ENERGY FILE WAS UPDATED (CS_PdOAc_006_opt_01.en.tmp) ****
Finished Guess after   0.7 sec
Maximum memory used throughout the entire GUESS-calculation: 6.1 MB


           ************************************************************
           *        Program running with 4 parallel MPI-processes     *
           *              working on a common directory               *
           ************************************************************
----------------------------------------D-I-I-S--------------------------------------------
Iteration    Energy (Eh)           Delta-E    RMSDP     MaxDP     DIISErr   Damp  Time(sec)
-------------------------------------------------------------------------------------------
               ***  Starting incremental Fock matrix formation  ***
    1    -228.5936565316662268     0.00e+00  3.25e-04  3.06e-03  2.26e-02  0.850   0.8
    2    -228.5941125102171441    -4.56e-04  3.30e-04  2.85e-03  1.82e-02  0.850   0.9
                               ***Turning on AO-DIIS***
    3    -228.5945029675094133    -3.90e-04  2.88e-04  2.50e-03  1.43e-02  0.850   0.9
    4    -228.5948260077059331    -3.23e-04  1.70e-03  1.46e-02  1.28e-02  0.000   0.9
    5    -228.5967129217107754    -1.89e-03  2.74e-04  3.24e-03  3.15e-03  0.000   0.9
    6    -228.5967188372686678    -5.92e-06  8.83e-05  1.42e-03  2.83e-03  0.000   1.6
                              *** Initializing SOSCF ***
---------------------------------------S-O-S-C-F--------------------------------------
Iteration    Energy (Eh)           Delta-E    RMSDP     MaxDP     MaxGrad    Time(sec)
--------------------------------------------------------------------------------------
    7    -228.5967325013500044    -1.37e-05  3.10e-05  2.98e-04  5.50e-04     1.9
               *** Restarting incremental Fock matrix formation ***
    8    -228.5967324147055706     8.66e-08  2.43e-05  2.58e-04  1.04e-04     1.6
    9    -228.5967323149395156     9.98e-08  1.27e-05  1.61e-04  1.73e-04     0.8
   10    -228.5967324693190221    -1.54e-07  1.93e-06  3.21e-05  6.51e-06     0.8
   11    -228.5967324702410224    -9.22e-10  8.72e-07  1.75e-05  7.10e-06     0.8
                 **** Energy Check signals convergence ****

               *****************************************************
               *                     SUCCESS                       *
               *           SCF CONVERGED AFTER  11 CYCLES          *
               *****************************************************

Recomputing exchange energy using gridx3       ... done (    0.373 sec)
Old exchange energy                            :     -7.051111825 Eh
New exchange energy                            :     -7.051120485 Eh
Exchange energy change after final integration :     -0.000008660 Eh
Total energy after final integration           :   -228.596741131 Eh
             **** ENERGY FILE WAS UPDATED (CS_PdOAc_006_opt_01.en.tmp) ****

----------------
TOTAL SCF ENERGY
----------------

Total Energy       :       -228.59674113061203 Eh           -6220.43357 eV

Components:
Nuclear Repulsion  :        121.44345450959672 Eh            3304.64440 eV
Electronic Energy  :       -350.04018697983770 Eh           -9525.07773 eV
One Electron Energy:       -552.60725522407586 Eh          -15037.20789 eV
Two Electron Energy:        202.56706824423813 Eh            5512.13016 eV

Virial components:
Potential Energy   :       -455.52865888010069 Eh          -12395.56499 eV
Kinetic Energy     :        226.93191774948866 Eh            6175.13142 eV
Virial Ratio       :          2.00733622399896

DFT components:
N(Alpha)           :       16.000000560616 electrons
N(Beta)            :       16.000000560616 electrons
N(Total)           :       32.000001121233 electrons
E(X)               :      -21.130617485032 Eh       
E(C)               :       -1.074245795754 Eh       
E(XC)              :      -22.204863280787 Eh       

---------------
SCF CONVERGENCE
---------------

  Last Energy change         ...    9.2200e-10  Tolerance :   1.0000e-08
  Last MAX-Density change    ...    1.7471e-05  Tolerance :   1.0000e-07
  Last RMS-Density change    ...    8.7225e-07  Tolerance :   5.0000e-09
  Last DIIS Error            ...    5.5007e-04  Tolerance :   5.0000e-07
  Last Orbital Gradient      ...    7.1002e-06  Tolerance :   1.0000e-05
  Last Orbital Rotation      ...    4.5335e-06  Tolerance :   1.0000e-05


Total SCF time: 0 days 0 hours 0 min 13 sec 
Finished LeanSCF after  13.4 sec

Maximum memory used throughout the entire LEANSCF-calculation: 7.9 MB


-------------------------------------------------------------------------------
                          DFT DISPERSION CORRECTION                            
                                                                               
                              DFTD3 V3.1  Rev 1                                
                          USING Becke-Johnson damping                          
-------------------------------------------------------------------------------
-------------------------   ----------------
Dispersion correction           -0.003417929
-------------------------   ----------------


-------------------------   --------------------
FINAL SINGLE POINT ENERGY      -228.600159059797
-------------------------   --------------------



           ************************************************************
           *        Program running with 4 parallel MPI-processes     *
           *              working on a common directory               *
           ************************************************************
------------------------------------------------------------------------------
                         ORCA SCF GRADIENT CALCULATION
------------------------------------------------------------------------------

Nuc. rep. gradient        (SHARK) ... done (  0.0 sec)
HCore & Overlap gradient  (SHARK) ... done (  0.0 sec)
Split-RIJ-J gradient      (SHARK) ... done (  0.7 sec)
COSX-gradient                     ... done (  1.4 sec)
XC gradient                       ... done (  0.4 sec)
Dispersion correction             ... done (  0.1 sec)

-------------------
DISPERSION GRADIENT
-------------------

   1   O   :   -0.000022124    0.000058437   -0.000049044
   2   C   :    0.000013398    0.000006627   -0.000010414
   3   O   :    0.000090059    0.000018597   -0.000045042
   4   C   :    0.000003771   -0.000040214    0.000036835
   5   H   :   -0.000009709   -0.000022746    0.000059365
   6   H   :   -0.000033027   -0.000047342    0.000029824
   7   H   :    0.000010734   -0.000046556    0.000030714
   8   H   :   -0.000053101    0.000073197   -0.000052238

Difference to translation invariance:
           :    0.0000000000    0.0000000000    0.0000000000

Difference to rotation invariance:
           :    0.0000000000    0.0000000000    0.0000000000

Norm of the Dispersion gradient    ...    0.0002064090
RMS gradient                       ...    0.0000421331
MAX gradient                       ...    0.0000900588

------------------
CARTESIAN GRADIENT
------------------

   1   O   :    0.023724153   -0.012686497    0.004711721
   2   C   :   -0.054048650    0.023601543   -0.008845608
   3   O   :    0.023611913   -0.005366998   -0.000040344
   4   C   :    0.009262995   -0.005185617    0.002871850
   5   H   :    0.000533065    0.000603772   -0.000376396
   6   H   :   -0.000184298    0.000876086   -0.001365030
   7   H   :   -0.000926392    0.000248760    0.000411500
   8   H   :   -0.001972786   -0.002091049    0.002632306

Difference to translation invariance:
           :    0.0000000001    0.0000000000   -0.0000000001

Difference to rotation invariance:
           :    0.0000162874    0.0000075214    0.0001060589

Norm of the Cartesian gradient     ...    0.0709191449
RMS gradient                       ...    0.0144763098
MAX gradient                       ...    0.0540486499

-------
TIMINGS
-------

Total SCF gradient time     ....        2.486 sec

Densities                   ....       0.000 sec  (  0.0%)
One electron gradient       ....       0.017 sec  (  0.7%)
RI-J Coulomb gradient       ....       0.652 sec  ( 26.2%)
COSX gradient               ....       1.351 sec  ( 54.4%)
XC gradient                 ....       0.378 sec  ( 15.2%)

Maximum memory used throughout the entire SCFGRAD-calculation: 26.0 MB
------------------------------------------------------------------------------
                         ORCA GEOMETRY RELAXATION STEP
------------------------------------------------------------------------------

Reading the OPT-File                    .... done
Getting information on internals        .... done
Copying old internal coords+grads       .... done
Making the new internal coordinates     .... (2022 redundants) done
Validating the new internal coordinates .... (2022 redundants) done
Calculating the B-matrix                .... done
Calculating the G,G- and P matrices     .... done
Transforming gradient to internals      .... done
Projecting the internal gradient        .... done
Number of atoms                         ....   8
Number of internal coordinates          ....  24
Current Energy                          ....  -228.600159060 Eh
Current gradient norm                   ....     0.070919145 Eh/bohr
Maximum allowed component of the step   ....  0.300
Current trust radius                    ....  0.300
Updating the Hessian (BFGS)             .... done
Forming the augmented Hessian           .... done
Diagonalizing the augmented Hessian     .... done
Last element of RFO vector              ....  0.986104675
Lowest eigenvalues of augmented Hessian:
 -0.004214585  0.012277172  0.012702172  0.135423327  0.142411654
Length of the computed step             ....  0.168466056
The final length of the internal step   ....  0.168466056
Converting the step to Cartesian space:
 Initial RMS(Int)=    0.0343879897
Transforming coordinates:
 Iter   0:  RMS(Cart)=    0.0272431268 RMS(Int)=    0.0350413140
 Iter   5:  RMS(Cart)=    0.0000106442 RMS(Int)=    0.0000160644
 Iter  10:  RMS(Cart)=    0.0000002929 RMS(Int)=    0.0000004420
done
Storing new coordinates                 .... done
The predicted energy change is          ....    -0.002167099
Previously predicted energy change      ....    -0.006234160
Actually observed energy change         ....    -0.008471188
Ratio of predicted to observed change   ....     1.358833817
New trust radius                        ....     0.300000000

                                .--------------------.
          ----------------------|Geometry convergence|-------------------------
          Item                value                   Tolerance       Converged
          ---------------------------------------------------------------------
          Energy change      -0.0084711880            0.0000050000      NO
[...]
Exchange energy change after final integration :     -0.000006367 Eh
Total energy after final integration           :   -228.648891645 Eh
             **** ENERGY FILE WAS UPDATED (CS_PdOAc_006_opt_01.en.tmp) ****

----------------
TOTAL SCF ENERGY
----------------

Total Energy       :       -228.64889164455806 Eh           -6221.85265 eV

Components:
Nuclear Repulsion  :        121.39963061315990 Eh            3303.45189 eV
Electronic Energy  :       -350.04851589079317 Eh           -9525.30437 eV
One Electron Energy:       -552.26636311293134 Eh          -15027.93175 eV
Two Electron Energy:        202.21784722213818 Eh            5502.62737 eV

Virial components:
Potential Energy   :       -455.66505667504885 Eh          -12399.27656 eV
Kinetic Energy     :        227.01616503049075 Eh            6177.42390 eV
Virial Ratio       :          2.00719211609379

DFT components:
N(Alpha)           :       16.000009932579 electrons
N(Beta)            :       16.000009932579 electrons
N(Total)           :       32.000019865158 electrons
E(X)               :      -21.121765293452 Eh       
E(C)               :       -1.072807970886 Eh       
E(XC)              :      -22.194573264338 Eh       

---------------
SCF CONVERGENCE
---------------

  Last Energy change         ...   -1.7963e-10  Tolerance :   1.0000e-08
  Last MAX-Density change    ...    6.8585e-06  Tolerance :   1.0000e-07
  Last RMS-Density change    ...    6.0115e-07  Tolerance :   5.0000e-09
  Last DIIS Error            ...    7.6595e-04  Tolerance :   5.0000e-07
  Last Orbital Gradient      ...    5.8805e-06  Tolerance :   1.0000e-05
  Last Orbital Rotation      ...    4.9666e-06  Tolerance :   1.0000e-05


----------------
ORBITAL ENERGIES
----------------

  NO   OCC          E(Eh)            E(eV) 
   0   2.0000     -19.255418      -523.9666 
   1   2.0000     -19.198707      -522.4234 
   2   2.0000     -10.365415      -282.0573 
   3   2.0000     -10.241086      -278.6741 
   4   2.0000      -1.131071       -30.7780 
   5   2.0000      -1.034503       -28.1502 
   6   2.0000      -0.776028       -21.1168 
   7   2.0000      -0.631160       -17.1747 
   8   2.0000      -0.505179       -13.7466 
   9   2.0000      -0.496388       -13.5074 
  10   2.0000      -0.489431       -13.3181 
  11   2.0000      -0.424944       -11.5633 
  12   2.0000      -0.409824       -11.1519 
  13   2.0000      -0.407649       -11.0927 
  14   2.0000      -0.337554        -9.1853 
  15   2.0000      -0.292809        -7.9677 
  16   0.0000       0.016836         0.4581 
  17   0.0000       0.063591         1.7304 
  18   0.0000       0.091801         2.4980 
  19   0.0000       0.136832         3.7234 
  20   0.0000       0.147972         4.0265 
  21   0.0000       0.222648         6.0586 
  22   0.0000       0.271046         7.3755 
  23   0.0000       0.323117         8.7925 
  24   0.0000       0.462343        12.5810 
  25   0.0000       0.468218        12.7409 
  26   0.0000       0.522161        14.2087 
*Only the first 10 virtual orbitals were printed.

                    ********************************
                    * MULLIKEN POPULATION ANALYSIS *
                    ********************************

-----------------------
MULLIKEN ATOMIC CHARGES
-----------------------
   0 O :   -0.375762
   1 C :    0.166352
   2 O :   -0.243037
   3 C :   -0.363710
   4 H :    0.161954
   5 H :    0.161964
   6 H :    0.157120
   7 H :    0.335119
Sum of atomic charges:   -0.0000000

--------------------------------
MULLIKEN REDUCED ORBITAL CHARGES
--------------------------------
  0 O s       :     3.761308  s :     3.761308
      pz      :     1.571516  p :     4.597587
      px      :     1.575257
      py      :     1.450814
      dz2     :     0.002145  d :     0.016866
      dxz     :     0.003211
      dyz     :     0.003975
      dx2y2   :     0.002859
      dxy     :     0.004677

  1 C s       :     3.053208  s :     3.053208
      pz      :     0.923094  p :     2.641565
      px      :     0.836870
      py      :     0.881601
      dz2     :     0.024425  d :     0.138875
      dxz     :     0.028376
      dyz     :     0.015974
      dx2y2   :     0.028765
      dxy     :     0.041335

  2 O s       :     3.749964  s :     3.749964
      pz      :     1.469353  p :     4.473990
      px      :     1.393882
      py      :     1.610754
      dz2     :     0.003240  d :     0.019084
      dxz     :     0.006275
      dyz     :     0.001283
      dx2y2   :     0.004485
      dxy     :     0.003800

  3 C s       :     3.133426  s :     3.133426
      pz      :     1.051595  p :     3.202078
      px      :     1.097034
      py      :     1.053448
      dz2     :     0.005814  d :     0.028206
      dxz     :     0.002810
      dyz     :     0.008183
      dx2y2   :     0.002780
      dxy     :     0.008618

  4 H s       :     0.838046  s :     0.838046

  5 H s       :     0.838036  s :     0.838036

  6 H s       :     0.842880  s :     0.842880

  7 H s       :     0.664881  s :     0.664881



                     *******************************
                     * LOEWDIN POPULATION ANALYSIS *
                     *******************************

----------------------
LOEWDIN ATOMIC CHARGES
----------------------
   0 O :   -0.256203
   1 C :    0.059054
   2 O :   -0.187588
   3 C :   -0.367814
   4 H :    0.151054
   5 H :    0.151002
   6 H :    0.144785
   7 H :    0.305711

-------------------------------
LOEWDIN REDUCED ORBITAL CHARGES
-------------------------------
  0 O s       :     3.526837  s :     3.526837
      pz      :     1.588786  p :     4.700070
      px      :     1.629857
      py      :     1.481427
      dz2     :     0.003991  d :     0.029297
      dxz     :     0.004468
      dyz     :     0.007091
      dx2y2   :     0.004645
      dxy     :     0.009102

  1 C s       :     2.849099  s :     2.849099
      pz      :     0.934406  p :     2.789297
      px      :     0.955777
      py      :     0.899114
      dz2     :     0.050434  d :     0.302550
      dxz     :     0.063118
      dyz     :     0.033336
      dx2y2   :     0.064362
      dxy     :     0.091301

  2 O s       :     3.546618  s :     3.546618
      pz      :     1.504960  p :     4.608665
      px      :     1.496317
      py      :     1.607388
      dz2     :     0.004264  d :     0.032304
      dxz     :     0.012198
      dyz     :     0.001864
      dx2y2   :     0.008731
      dxy     :     0.005247

  3 C s       :     2.962967  s :     2.962967
      pz      :     1.098813  p :     3.337999
      px      :     1.134612
      py      :     1.104574
      dz2     :     0.014085  d :     0.066848
      dxz     :     0.006276
      dyz     :     0.020417
      dx2y2   :     0.005817
      dxy     :     0.020252

  4 H s       :     0.848946  s :     0.848946

  5 H s       :     0.848998  s :     0.848998

  6 H s       :     0.855215  s :     0.855215

  7 H s       :     0.694289  s :     0.694289



                      *****************************
                      * MAYER POPULATION ANALYSIS *
                      *****************************

  NA   - Mulliken gross atomic population
  ZA   - Total nuclear charge
  QA   - Mulliken gross atomic charge
  VA   - Mayer's total valence
  BVA  - Mayer's bonded valence
  FA   - Mayer's free valence

  ATOM       NA         ZA         QA         VA         BVA        FA
  0 O      8.3758     8.0000    -0.3758     2.0676     2.0676    -0.0000
  1 C      5.8336     6.0000     0.1664     4.3863     4.3863    -0.0000
  2 O      8.2430     8.0000    -0.2430     2.2336     2.2336    -0.0000
  3 C      6.3637     6.0000    -0.3637     3.8413     3.8413     0.0000
  4 H      0.8380     1.0000     0.1620     0.9500     0.9500     0.0000
  5 H      0.8380     1.0000     0.1620     0.9500     0.9500    -0.0000
  6 H      0.8429     1.0000     0.1571     0.9628     0.9628     0.0000
  7 H      0.6649     1.0000     0.3351     0.8907     0.8907     0.0000

  Mayer bond orders larger than 0.100000
B(  0-O ,  1-C ) :   1.1959 B(  0-O ,  7-H ) :   0.8258 B(  1-C ,  2-O ) :   2.0959 
B(  1-C ,  3-C ) :   1.0530 B(  3-C ,  4-H ) :   0.9302 B(  3-C ,  5-H ) :   0.9303 
B(  3-C ,  6-H ) :   0.9475 

-------
TIMINGS
-------

Total SCF time: 0 days 0 hours 0 min 10 sec 

Total time                  ....      10.057 sec
Sum of individual times     ....       9.670 sec  ( 96.2%)

SCF preparation             ....       0.548 sec  (  5.4%)
Fock matrix formation       ....       7.570 sec  ( 75.3%)
  Startup                   ....       0.337 sec  (  4.5% of F)
  Split-RI-J                ....       3.226 sec  ( 42.6% of F)
  Chain of spheres X        ....       1.774 sec  ( 23.4% of F)
  XC integration            ....       0.978 sec  ( 12.9% of F)
    Basis function eval.    ....       0.186 sec  ( 19.1% of XC)
    Density eval.           ....       0.067 sec  (  6.9% of XC)
    XC-Functional eval.     ....       0.070 sec  (  7.1% of XC)
    XC-Potential eval.      ....       0.060 sec  (  6.1% of XC)
Diagonalization             ....       0.000 sec  (  0.0%)
Density matrix formation    ....       0.429 sec  (  4.3%)
Total Energy calculation    ....       0.248 sec  (  2.5%)
Population analysis         ....       0.221 sec  (  2.2%)
Orbital Transformation      ....       0.060 sec  (  0.6%)
Orbital Orthonormalization  ....       0.000 sec  (  0.0%)
DIIS solution               ....       0.135 sec  (  1.3%)
SOSCF solution              ....       0.459 sec  (  4.6%)
Finished LeanSCF after  10.2 sec

Maximum memory used throughout the entire LEANSCF-calculation: 10.1 MB


-------------------------------------------------------------------------------
                          DFT DISPERSION CORRECTION                            
                                                                               
                              DFTD3 V3.1  Rev 1                                
                          USING Becke-Johnson damping                          
-------------------------------------------------------------------------------
The PBE0 functional is recognized
Active option DFTDOPT                   ...         4   

molecular C6(AA) [au] = 530.235015 


            DFT-D V3
 parameters
 s6 scaling factor         :     1.0000 
 a1 scaling factor         :     0.4145 
 s8 scaling factor         :     1.2177 
 a2 scaling factor         :     4.8593 
 ad hoc parameters k1-k3   :    16.0000     1.3333    -4.0000 

 Edisp/kcal,au: -2.160381033464  -0.003442785954 
 E6   /kcal   :  -1.400944057 
 E8   /kcal   :  -0.759436976 
 % E8         :  35.152918139 

-------------------------   ----------------
Dispersion correction           -0.003442786
-------------------------   ----------------


-------------------------   --------------------
FINAL SINGLE POINT ENERGY      -228.652334430512
-------------------------   --------------------

                                *** OPTIMIZATION RUN DONE ***



           ************************************************************
           *        Program running with 4 parallel MPI-processes     *
           *              working on a common directory               *
           ************************************************************

------------------------------------------------------------------------------
                              ORCA PROPERTY CALCULATIONS
------------------------------------------------------------------------------

GBWName                                 ... CS_PdOAc_006_opt_01.gbw
Number of atoms                         ...      8
Number of basis functions               ...     64
Max core memory                         ...   3500 MB

Electric properties:
Dipole moment                           ... YES
Quadrupole moment                       ...  NO
Static polarizability (Dipole/Dipole)   ...  NO
Static polarizability (Dipole/Quad.)    ...  NO
Static polarizability (Quad./Quad.)     ...  NO
Static polarizability (Velocity)        ...  NO

Atomic electric properties:
Dipole moment                           ...  NO
Quadrupole moment                       ...  NO
Static polarizability                   ...  NO

Choice of electric origin               ... Center of mass
Position of electric origin             ...     1.241122    -1.472563     0.941331

General magnetic properties:
Magnetizability                         ...  NO

EPR properties:
g-Tensor (aka g-matrix)                 ...  NO
Zero-Field splitting spin-orbit         ...  NO
Zero-field splitting spin-spin          ...  NO
Hyperfine couplings                     ...  NO (   0 nuclei)
Quadrupole couplings                    ...  NO (   0 nuclei)
Contact density                         ...  NO (   0 nuclei)

NMR properties:
Chemical shifts                         ...  NO (   0 nuclei)
Spin-rotation constants                 ...  NO (   0 nuclei)
Spin-spin couplings                     ...  NO (   0 nuclei,    0 pairs)

Choice of magnetic origin               ... GIAO
Position of magnetic origin             ...     0.000000     0.000000     0.000000

Properties with geometric perturbations:
SCF Hessian                             ...  NO
IR spectrum                             ...  NO
VCD spectrum                            ...  NO
X-ray spectroscopy properties:
SCF XES/XAS/RIXS spectra                ...  NO


-------------
DIPOLE MOMENT
-------------

Method             : SCF
Type of density    : Electron Density
Multiplicity       :   1
Irrep              :   0
Energy             :  -228.6488916445580628 Eh
Relativity type    : 
Basis              : AO
                                X                 Y                 Z
Electronic contribution:      0.861107321       2.188246252      -2.479014864
Nuclear contribution   :     -1.425027740      -2.157446736       2.749355632
                        -----------------------------------------
Total Dipole Moment    :     -0.563920420       0.030799516       0.270340768
                        -----------------------------------------
Magnitude (a.u.)       :      0.626130163
Magnitude (Debye)      :      1.591496396



--------------------
Rotational spectrum 
--------------------
 
Rotational constants in cm-1:             0.382156             0.316545             0.178972 
Rotational constants in MHz :         11456.738921          9489.779872          5365.458298 

Dipole components along the rotational axes: 
x,y,z [a.u.] :    -0.231915    -0.581589     0.002875 
x,y,z [Debye]:    -0.589481    -1.478283     0.007308 

 

Dipole moment calculation done in   0.1 sec 

Maximum memory used throughout the entire PROP-calculation: 6.5 MB

--------------------------------
SUGGESTED CITATIONS FOR THIS RUN
--------------------------------

Below you find a list of papers that are relevant to this ORCA run
We neither can nor want to force you to cite these papers, but we appreciate if you do
You receive ORCA, which is the product of decades of hard work by many enthusiastic individuals, for free
The only thing we kindly ask in return is that you cite our papers,
We deeply appreciate it, if you show your appreciation for ORCA by not just citing the generic ORCA reference.

Please note that relegating all ORCA citations to the supporting information does *not* help us.
SI sections are not indexed - citations you put there will not count into any citation statistics
But we need these citations in order to attract the funding resources that allow us to do what we are doing

Therefore, if you are a happy ORCA user, please consider citing a few of the papers listed below in the main body of your paper

In addition to the list printed below, the program has created the file CS_PdOAc_006_opt_01.bibtex that contains the list in bibtex format
You can import this file easily into all common literature databanks and citation aid programs


List of essential papers. We consider these as the minimum necessary citations

  1. Neese,F.
     Software update: the ORCA program system, version 5.0
     WIRES Comput. Molec. Sci., 2022 12(1)e1606
     doi.org/10.1002/wcms.1606

List of papers to cite with high priority. The work reported in these papers was absolutely
necessary for this run to complete.
Our perspective: the developers of density functionals and basis sets usually get cited in chemistry papers
Good! But without the algorithms to do something with them, the functionals or basis sets would not do anything.
Hence, in our opinion, the algorithm design and method developments papers are equally worthy of getting cited

  1. Neese,F.
     An improvement of the resolution of the identity approximation for the formation of the Coulomb matrix
     J. Comp. Chem., 2003 24(14)1740-1747
     doi.org/10.1002/jcc.10318
  2. Neese,F.; Wennmohs,F.; Hansen,A.; Becker,U.
     Efficient, approximate and parallel Hartree-Fock and hybrid DFT calculations. A 'chain-of-spheres' algorithm for the Hartree-Fock exchange
     Chem. Phys., 2009 356(1-3)98-109
     doi.org/10.1016/j.chemphys.2008.10.036
  3. Helmich-Paris,B.; de Souza,B.; Neese,F.; Izsák,R.
     An improved chain of spheres for exchange algorithm
     J. Chem. Phys., 2021 155 104109
     doi.org/doi: 10.1063/5.0058766.
  4. Neese,F.
     The SHARK Integral Generation and Digestion System
     J. Comp. Chem., 2022  1-16
     doi.org/10.1002/jcc.26942
  5. Grimme,S.; Antony,J.; Ehrlich,S.; Krieg,H.
     A consistent and accurate ab initio parametrization of density functional dispersion correction (DFT-D) for the 94 elements H-Pu
     J. Chem. Phys., 2010 132 154104-XXXX
     doi.org/10.1063/1.3382344
  6. Grimme,S.; Ehrlich,S.; Goerigk,L.
     Effect of the damping function in dispersion corrected density functional theory
     J. Comput. Chem., 2011 32(7)1456-1465
     doi.org/10.1002/jcc.21759

List of suggested additional citations. These are papers that are important in the 'surrounding' of 
of this run, or papers that preceded the highly important papers. If you like your results we are grateful for a citation.

  1. Izsak,R.; Neese,F.
     An overlap fitted chain of spheres exchange method
     J. Chem. Phys., 2011 135 144105
     doi.org/10.1063/1.3646921
  2. Izsak,R.; Hansen,A.; Neese,F.
     The resolution of identity and chain of spheres approximations for the LPNO-CCSD singles Fock term
     Molec. Phys., 2012 110 2413-2417
     doi.org/10.1080/00268976.2012.687466
  3. Neese,F.
     The ORCA program system
     WIRES Comput. Molec. Sci., 2012 2(1)73-78
     doi.org/10.1002/wcms.81
  4. Izsak,R.; Neese,F.; Klopper,W.
     Robust fitting techniques in the chain of spheres approximation to the Fock exchange: The role of the complementary space
     J. Chem. Phys., 2013 139 
     doi.org/10.1063/1.4819264
  5. Neese,F.
     Software update: the ORCA program system, version 4.0
     WIRES Comput. Molec. Sci., 2018 8(1)1-6
     doi.org/10.1002/wcms.1327
  6. Neese,F.; Wennmohs,F.; Becker,U.; Riplinger,C.
     The ORCA quantum chemistry program package
     J. Chem. Phys., 2020 152 Art. No. L224108
     doi.org/10.1063/5.0004608

List of optional additional citations

  1. Neese,F.
     Approximate second-order SCF convergence for spin unrestricted wavefunctions
     Chem. Phys. Lett., 2000 325(1-3)93-98
     doi.org/10.1016/s0009-2614(00)00662-x

Timings for individual modules:

Sum of individual times          ...      591.376 sec (=   9.856 min)
Startup calculation              ...       75.044 sec (=   1.251 min)  12.7 %
SCF iterations                   ...      418.337 sec (=   6.972 min)  70.7 %
Property calculations            ...        1.639 sec (=   0.027 min)   0.3 %
SCF Gradient evaluation          ...       95.139 sec (=   1.586 min)  16.1 %
Geometry relaxation              ...        1.216 sec (=   0.020 min)   0.2 %
                             ****ORCA TERMINATED NORMALLY****
TOTAL RUN TIME: 0 days 0 hours 10 minutes 54 seconds 195 msec
