
                                 *****************
                                 * O   R   C   A *
                                 *****************

                                            #,                                       
                                            ###                                      
                                            ####                                     
                                            #####                                    
                                            ######                                   
                                           ########,                                 
                                     ,,################,,,,,                         
                               ,,#################################,,                 
                          ,,##########################################,,             
                       ,#########################################, ''#####,          
                    ,#############################################,,   '####,        
                  ,##################################################,,,,####,       
                ,###########''''           ''''###############################       
              ,#####''   ,,,,##########,,,,          '''####'''          '####       
            ,##' ,,,,###########################,,,                        '##       
           ' ,,###''''                  '''############,,,                           
         ,,##''                                '''############,,,,        ,,,,,,###''
      ,#''                                            '''#######################'''  
     '                                                          ''''####''''         
             ,#######,   #######,   ,#######,      ##                                
            ,#'     '#,  ##    ##  ,#'     '#,    #''#        ,####,   ,####,        
            ##       ##  ##   ,#'  ##            #'  '#       #'       #'  '#        
            ##       ##  #######   ##           ,######,      #####,   #    #        
            '#,     ,#'  ##    ##  '#,     ,#' ,#      #,     #,   #   #,  ,#        
             '#######'   ##     ##  '#######'  #'      '#     '####' # '####'        



                #########################################################
                #                        -***-                          #
                #          Department of theory and spectroscopy        #
                #                                                       #
                #                      Frank Neese                      #
                #                                                       #
                #     Directorship, Architecture, Infrastructure        #
                #                    SHARK, DRIVERS                     #
                #        Core code/Algorithms in most modules           #
                #                                                       #
                #        Max Planck Institute fuer Kohlenforschung      #
                #                Kaiser Wilhelm Platz 1                 #
                #                 D-45470 Muelheim/Ruhr                 #
                #                      Germany                          #
                #                                                       #
                #                  All rights reserved                  #
                #                        -***-                          #
                #########################################################


                         Program Version 6.0.0  -   RELEASE  -


 With contributions from (in alphabetic order):
   Daniel Aravena         : Magnetic Suceptibility
   Michael Atanasov       : Ab Initio Ligand Field Theory (pilot matlab implementation)
   Alexander A. Auer      : GIAO ZORA, VPT2 properties, NMR spectrum
   Ute Becker             : All parallelization in ORCA, NUMFREQ, NUMCALC
   Giovanni Bistoni       : ED, misc. LED, open-shell LED, HFLD
   Martin Brehm           : Molecular dynamics
   Dmytro Bykov           : pre 5.0 version of the SCF Hessian
   Marcos Casanova-Páez   : Triplet and SCS-CIS(D). UHF-(DLPNO)-IP/EA/STEOM-CCSD. UHF-CVS-IP/STEOM-CCSD
   Vijay G. Chilkuri      : MRCI spin determinant printing, contributions to CSF-ICE
   Pauline Colinet        : FMM embedding
   Dipayan Datta          : RHF DLPNO-CCSD density
   Achintya Kumar Dutta   : EOM-CC, STEOM-CC
   Nicolas Foglia         : Exact transition moments, OPA infrastructure, MCD improvements
   Dmitry Ganyushin       : Spin-Orbit,Spin-Spin,Magnetic field MRCI
   Miquel Garcia          : C-PCM and meta-GGA Hessian, CCSD/C-PCM, Gaussian charge scheme
   Tiago L. C. Gouveia    : GS-ROHF, GS-ROCIS
   Yang Guo               : DLPNO-NEVPT2, F12-NEVPT2, CIM, IAO-localization
   Andreas Hansen         : Spin unrestricted coupled pair/coupled cluster methods
   Ingolf Harden          : AUTO-CI MPn and infrastructure 
   Benjamin Helmich-Paris : MC-RPA, TRAH-(SCF,CASSCF), AVAS, COSX integrals, SCF dyn. polar.
   Lee Huntington         : MR-EOM, pCC
   Robert Izsak           : Overlap fitted RIJCOSX, COSX-SCS-MP3, EOM
   Riya Kayal             : Wick's Theorem for AUTO-CI, AUTO-CI UHF-CCSDT
   Emily Kempfer          : AUTO-CI, RHF CISDT and CCSDT
   Christian Kollmar      : KDIIS, OOCD, Brueckner-CCSD(T), CCSD density, CASPT2, CASPT2-K, improved NEVPT2
   Axel Koslowski         : Symmetry handling
   Simone Kossmann        : Meta GGA functionals, TD-DFT gradient, OOMP2, (MP2 Hessian; deprecated post 5.0)
   Lucas Lang             : DCDCAS
   Marvin Lechner         : AUTO-CI (C++ implementation), FIC-MRCC
   Spencer Leger          : CASSCF response
   Dagmar Lenk            : GEPOL surface, SMD, ORCA-2-JSON
   Dimitrios Liakos       : Extrapolation schemes; Compound Job, initial MDCI parallelization
   Dimitrios Manganas     : Further ROCIS development; embedding schemes. LFT, Crystal Embedding
   Dimitrios Pantazis     : SARC Basis sets
   Anastasios Papadopoulos: AUTO-CI, single reference methods and gradients
   Taras Petrenko         : pre 6.0 DFT Hessian and TD-DFT gradient, (ASA, deprecated), ECA, 1-Electron XAS/XES, NRVS
   Peter Pinski           : DLPNO-MP2, DLPNO-MP2 Gradient
   Christoph Reimann      : Effective Core Potentials
   Marius Retegan         : Local ZFS, SOC
   Christoph Riplinger    : Optimizer, TS searches, QM/MM, DLPNO-CCSD(T), (RO)-DLPNO pert. Triples
   Michael Roemelt        : Original ROCIS implementation
   Masaaki Saitow         : Open-shell DLPNO-CCSD energy and density
   Barbara Sandhoefer     : DKH picture change effects
   Kantharuban Sivalingam : CASSCF convergence/infrastructure, NEVPT2 and variants, FIC-MRCI
   Bernardo de Souza      : ESD, SOC TD-DFT
   Georgi Stoychev        : AutoAux, RI-MP2 NMR, DLPNO-MP2 response, X2C
   Van Anh Tran           : RI-MP2 g-tensors
   Willem Van den Heuvel  : Paramagnetic NMR
   Zikuan Wang            : NOTCH, Electric field optimization 
   Frank Wennmohs         : Technical directorship and infrastructure
   Hang Xu                : AUTO-CI-Response properties 


 We gratefully acknowledge several colleagues who have allowed us to
 interface, adapt or use parts of their codes:
   Stefan Grimme, W. Hujo, H. Kruse, P. Pracht,  : VdW corrections, initial TS optimization,
                  C. Bannwarth, S. Ehlert,         DFT functionals, gCP, sTDA/sTD-DF
                  L. Wittmann, M. Mueller
   Ed Valeev, F. Pavosevic, A. Kumar             : LibInt (2-el integral package), F12 methods
   Garnet Chan, S. Sharma, J. Yang, R. Olivares  : DMRG
   Ulf Ekstrom                                   : XCFun DFT Library
   Mihaly Kallay                                 : mrcc  (arbitrary order and MRCC methods)
   Frank Weinhold                                : gennbo (NPA and NBO analysis)
   Simon Mueller                                 : openCOSMO-RS
   Christopher J. Cramer and Donald G. Truhlar   : smd solvation model
   Lars Goerigk                                  : TD-DFT with DH, B97 family of functionals
   V. Asgeirsson, H. Jonsson                     : NEB implementation
   FAccTs GmbH                                   : IRC, NEB, NEB-TS, DLPNO-Multilevel, CI-OPT
                                                   MM, QMMM, 2- and 3-layer-ONIOM, Crystal-QMMM,
                                                   LR-CPCM, SF, NACMEs, symmetry and pop. for TD-DFT,
                                                   nearIR, NL-DFT gradient (VV10), updates on ESD,
                                                   ML-optimized integration grids, MBIS, APM,
                                                   GOAT, DOCKER, SOLVATOR, interface openCOSMO-RS
   S Lehtola, MJT Oliveira, MAL Marques          : LibXC Library
   Liviu Ungur et al                             : ANISO software


 Your calculation uses the libint2 library for the computation of 2-el integrals
 For citations please refer to: http://libint.valeyev.net

 Your ORCA version has been built with support for libXC version: 6.2.2
 For citations please refer to: https://libxc.gitlab.io

 This ORCA versions uses:
   CBLAS   interface :  Fast vector & matrix operations
   LAPACKE interface :  Fast linear algebra routines
   SCALAPACK package :  Parallel linear algebra routines
   Shared memory     :  Shared parallel matrices
   BLAS/LAPACK       :  OpenBLAS 0.3.27  USE64BITINT DYNAMIC_ARCH NO_AFFINITY Sandybridge SINGLE_THREADED
        Core in use  :  Sandybridge
   Copyright (c) 2011-2014, The OpenBLAS Project


NOTE: MaxCore=3500 MB was set to SCF,MP2,MDCI,CIPSI,MRCI and CIS
      => If you want to overwrite this, your respective input block should be placed after the MaxCore statement
Your calculation utilizes the atom-pairwise dispersion correction
with the Becke-Johnson damping scheme (D3BJ)


Warning: RI is on but no J-basis has been assigned. Assigning Def2/J (nothing to worry about!)
================================================================================

----- Orbital basis set information -----
Your calculation utilizes the basis: def2-SV(P)
   F. Weigend and R. Ahlrichs, Phys. Chem. Chem. Phys. 7, 3297 (2005).

----- AuxJ basis set information -----
Your calculation utilizes the auxiliary basis: def2/J
   F. Weigend, Phys. Chem. Chem. Phys. 8, 1057 (2006).

================================================================================
                                        WARNINGS
                       Please study these warnings very carefully!
================================================================================


WARNING: Geometry Optimization
  ===> : Switching off AutoStart
         For restart on a previous wavefunction, please use MOREAD

================================================================================
                                       INPUT FILE
================================================================================
NAME = CS_PdOAc_005_opt_01.inp
|  1> !PBE0 def2-SV(p) opt d3 TightSCF SlowConv RIJCOSX defgrid2
|  2> 
|  3> %pal
|  4> nprocs 4
|  5> end
|  6> 
|  7> %scf
|  8> MaxIter 1500
|  9> end
| 10> 
| 11> %maxcore 3500
| 12> 
| 13>  
| 14> 
| 15> * xyz -1 1
| 16> 8        0.000000000      0.000000000      0.000000000
| 17> 6        0.888991609     -0.768352222      0.441589541
| 18> 8        2.101469440     -0.781209690      0.116018149
| 19> 6        0.456002403     -1.757280323      1.492604295
| 20> 1        0.372539619     -1.224538890      2.440893041
| 21> 1       -0.523717382     -2.157279995      1.242831373
| 22> 1        1.188349517     -2.552397924      1.594067848
| 23> *
| 24> 
| 25>                          ****END OF INPUT****
================================================================================

                       *****************************
                       * Geometry Optimization Run *
                       *****************************

Geometry optimization settings:
Update method            Update   .... BFGS
Choice of coordinates    CoordSys .... (2022) Redundant Internals
Initial Hessian          InHess   .... Almloef's Model
Max. no of cycles        MaxIter  .... 50

Convergence Tolerances:
Energy Change            TolE     ....  5.0000e-06 Eh
Max. Gradient            TolMAXG  ....  3.0000e-04 Eh/bohr
RMS Gradient             TolRMSG  ....  1.0000e-04 Eh/bohr
Max. Displacement        TolMAXD  ....  4.0000e-03 bohr
RMS Displacement         TolRMSD  ....  2.0000e-03 bohr
Strict Convergence                .... False

------------------------------------------------------------------------------
                        ORCA OPTIMIZATION COORDINATE SETUP
------------------------------------------------------------------------------

The optimization will be done in redundant internal coordinates (2022)
Making redundant internal coordinates   ...  (2022 redundants) done
Evaluating the initial hessian          ...  (Almloef) done
Evaluating the coordinates              ...  done
Calculating the B-matrix                .... done
Calculating the G-matrix                .... done
Diagonalizing the G-matrix              .... done
The first mode is                       ....    5
The number of degrees of freedom        ....   15

    -----------------------------------------------------------------
                    Redundant Internal Coordinates


    -----------------------------------------------------------------
         Definition                    Initial Value    Approx d2E/dq
    -----------------------------------------------------------------
      1. B(C   1,O   0)                  1.2553         0.918011   
      2. B(O   2,C   1)                  1.2555         0.917216   
      3. B(C   3,C   1)                  1.5067         0.406986   
      4. B(H   4,C   3)                  1.0909         0.358931   
      5. B(H   5,C   3)                  1.0873         0.363680   
      6. B(H   6,C   3)                  1.0857         0.365775   
      7. A(O   2,C   1,C   3)          116.8530         0.428963   
      8. A(O   0,C   1,C   3)          116.3361         0.429030   
      9. A(O   0,C   1,O   2)          126.7977         0.494323   
     10. A(H   4,C   3,H   5)          108.0838         0.291143   
     11. A(C   1,C   3,H   5)          109.8868         0.329464   
     12. A(C   1,C   3,H   6)          110.6108         0.329776   
     13. A(H   5,C   3,H   6)          111.0897         0.292009   
     14. A(H   4,C   3,H   6)          109.1479         0.291406   
     15. A(C   1,C   3,H   4)          107.9287         0.328749   
     16. D(H   4,C   3,C   1,O   2)    101.2265         0.012275   
     17. D(H   5,C   3,C   1,O   0)     40.0969         0.012275   
     18. D(H   5,C   3,C   1,O   2)   -141.1295         0.012275   
     19. D(H   6,C   3,C   1,O   0)    163.1120         0.012275   
     20. D(H   4,C   3,C   1,O   0)    -77.5471         0.012275   
    -----------------------------------------------------------------

Number of atoms                         .... 7
Number of degrees of freedom            .... 20


         *************************************************************
         *                GEOMETRY OPTIMIZATION CYCLE   1            *
         *************************************************************
---------------------------------
CARTESIAN COORDINATES (ANGSTROEM)
---------------------------------
  O      0.000000    0.000000    0.000000
  C      0.888992   -0.768352    0.441590
  O      2.101469   -0.781210    0.116018
  C      0.456002   -1.757280    1.492604
  H      0.372540   -1.224539    2.440893
  H     -0.523717   -2.157280    1.242831
  H      1.188350   -2.552398    1.594068

----------------------------
CARTESIAN COORDINATES (A.U.)
----------------------------
  NO LB      ZA    FRAG     MASS         X           Y           Z
   0 O     8.0000    0    15.999    0.000000    0.000000    0.000000
   1 C     6.0000    0    12.011    1.679951   -1.451975    0.834483
   2 O     8.0000    0    15.999    3.971202   -1.476272    0.219243
   3 C     6.0000    0    12.011    0.861720   -3.320779    2.820613
   4 H     1.0000    0     1.008    0.703998   -2.314043    4.612619
   5 H     1.0000    0     1.008   -0.989682   -4.076668    2.348611
   6 H     1.0000    0     1.008    2.245655   -4.823333    3.012352

--------------------------------
INTERNAL COORDINATES (ANGSTROEM)
--------------------------------
 O      0   0   0     0.000000000000     0.00000000     0.00000000
 C      1   0   0     1.255257957810     0.00000000     0.00000000
 O      2   1   0     1.255493742095   126.79774948     0.00000000
 C      2   1   3     1.506681935441   116.33613743   178.63356043
 H      4   2   1     1.090885427778   107.92873339   282.45291211
 H      4   2   1     1.087307273628   109.88680646    40.09694635
 H      4   2   1     1.085743591918   110.61078203   163.11196659

---------------------------
INTERNAL COORDINATES (A.U.)
---------------------------
 O      0   0   0     0.000000000000     0.00000000     0.00000000
 C      1   0   0     2.372093767686     0.00000000     0.00000000
 O      2   1   0     2.372539335411   126.79774948     0.00000000
 C      2   1   3     2.847216228911   116.33613743   178.63356043
 H      4   2   1     2.061474701986   107.92873339   282.45291211
 H      4   2   1     2.054712970578   109.88680646    40.09694635
 H      4   2   1     2.051758040385   110.61078203   163.11196659

---------------------
BASIS SET INFORMATION
---------------------
There are 3 groups of distinct atoms

 Group   1 Type O   : 7s4p1d contracted to 3s2p1d pattern {511/31/1}
 Group   2 Type C   : 7s4p1d contracted to 3s2p1d pattern {511/31/1}
 Group   3 Type H   : 4s contracted to 2s pattern {31}

Atom   0O    basis set group =>   1
Atom   1C    basis set group =>   2
Atom   2O    basis set group =>   1
Atom   3C    basis set group =>   2
Atom   4H    basis set group =>   3
Atom   5H    basis set group =>   3
Atom   6H    basis set group =>   3
---------------------------------
AUXILIARY/J BASIS SET INFORMATION
---------------------------------
There are 3 groups of distinct atoms

 Group   1 Type O   : 12s5p4d2f1g contracted to 6s4p3d1f1g pattern {711111/2111/211/2/1}
 Group   2 Type C   : 12s5p4d2f1g contracted to 6s4p3d1f1g pattern {711111/2111/211/2/1}
 Group   3 Type H   : 5s2p1d contracted to 3s1p1d pattern {311/2/1}

Atom   0O    basis set group =>   1
Atom   1C    basis set group =>   2
Atom   2O    basis set group =>   1
Atom   3C    basis set group =>   2
Atom   4H    basis set group =>   3
Atom   5H    basis set group =>   3
Atom   6H    basis set group =>   3


           ************************************************************
           *        Program running with 4 parallel MPI-processes     *
           *              working on a common directory               *
           ************************************************************
------------------------------------------------------------------------------
                             ORCA STARTUP CALCULATIONS
                           -- RI-GTO INTEGRALS CHOSEN --
------------------------------------------------------------------------------
------------------------------------------------------------------------------
                   ___                                                        
                  /   \      - P O W E R E D   B Y -                         
                 /     \                                                     
                 |  |  |   _    _      __       _____    __    __             
                 |  |  |  | |  | |    /  \     |  _  \  |  |  /  |          
                  \  \/   | |  | |   /    \    | | | |  |  | /  /          
                 / \  \   | |__| |  /  /\  \   | |_| |  |  |/  /          
                |  |  |   |  __  | /  /__\  \  |    /   |      \           
                |  |  |   | |  | | |   __   |  |    \   |  |\   \          
                \     /   | |  | | |  |  |  |  | |\  \  |  | \   \       
                 \___/    |_|  |_| |__|  |__|  |_| \__\ |__|  \__/        
                                                                              
                      - O R C A' S   B I G   F R I E N D -                    
                                      &                                       
                       - I N T E G R A L  F E E D E R -                       
                                                                              
 v1 FN, 2020, v2 2021, v3 2022-2024                                           
------------------------------------------------------------------------------


----------------------
SHARK INTEGRAL PACKAGE
----------------------

Number of atoms                             ...      7
Number of basis functions                   ...     62
Number of shells                            ...     30
Maximum angular momentum                    ...      2
Integral batch strategy                     ... SHARK/LIBINT Hybrid
RI-J (if used) integral strategy            ... SPLIT-RIJ (Revised 2003 algorithm where possible)
Printlevel                                  ...      1
Contraction scheme used                     ... SEGMENTED contraction
Prescreening option                         ... SCHWARTZ
   Thresh                                   ... 2.500e-11
   Tcut                                     ... 2.500e-12
   Tpresel                                  ... 2.500e-12 
Coulomb Range Separation                    ... NOT USED
Exchange Range Separation                   ... NOT USED
Multipole approximations                    ... NOT USED
Finite Nucleus Model                        ... NOT USED
CABS basis                                  ... NOT available
Auxiliary Coulomb fitting basis             ... AVAILABLE
   # of basis functions in Aux-J            ...    229
   # of shells in Aux-J                     ...     75
   Maximum angular momentum in Aux-J        ...      4
Auxiliary J/K fitting basis                 ... NOT available
Auxiliary Correlation fitting basis         ... NOT available
Auxiliary 'external' fitting basis          ... NOT available

Checking pre-screening integrals            ... done (  0.0 sec) Dimension = 30
Check shell pair data                       ... done (  0.0 sec)
Shell pair information
Shell pair cut-off parameter TPreSel        ...   2.5e-12
Total number of shell pairs                 ...       465
Shell pairs after pre-screening             ...       462
Total number of primitive shell pairs       ...      1891
Primitive shell pairs kept                  ...      1529
          la=0 lb=0:    168 shell pairs
          la=1 lb=0:    144 shell pairs
          la=1 lb=1:     36 shell pairs
          la=2 lb=0:     72 shell pairs
          la=2 lb=1:     32 shell pairs
          la=2 lb=2:     10 shell pairs

Calculating one electron integrals          ... done (  0.0 sec)
Calculating RI/J V-Matrix + Cholesky decomp.... done (  0.0 sec)
Calculating Nuclear repulsion               ... done (  0.0 sec) ENN=    112.891142612907 Eh

Diagonalization of the overlap matrix:
Smallest eigenvalue                        ... 4.079e-03
Time for diagonalization                   ...    0.001 sec
Threshold for overlap eigenvalues          ... 1.000e-07
Number of eigenvalues below threshold      ... 0
Time for construction of square roots      ...    0.011 sec
Total time needed                          ...    0.041 sec

-------------------
DFT GRID GENERATION
-------------------

General Integration Accuracy     IntAcc      ... 4.388
Radial Grid Type                 RadialGrid  ... OptM3 with GC (2021)
Angular Grid (max. ang.)         AngularGrid ... 4 (Lebedev-302)
Angular grid pruning method      GridPruning ... 4 (adaptive)
Weight generation scheme         WeightScheme... mBecke (2022)
Basis function cutoff            BFCut       ... 1.0000e-11
Integration weight cutoff        WCut        ... 1.0000e-14
Partially contracted basis set               ... off
Rotationally invariant grid construction     ... off
Angular grids for H and He will be reduced by one unit

Total number of grid points                  ...    34168
Total number of batches                      ...      539
Average number of points per batch           ...       63
Average number of grid points per atom       ...     4881

--------------------
COSX GRID GENERATION
--------------------

GRIDX 1
-------
General Integration Accuracy     IntAcc      ... 3.816
Radial Grid Type                 RadialGrid  ... OptM3 with GC (2021)
Angular Grid (max. ang.)         AngularGrid ... 1 (Lebedev-50)
Angular grid pruning method      GridPruning ... 4 (adaptive)
Weight generation scheme         WeightScheme... mBecke (2022)
Basis function cutoff            BFCut       ... 1.0000e-11
Integration weight cutoff        WCut        ... 1.0000e-14
Partially contracted basis set               ... on
Rotationally invariant grid construction     ... off
Angular grids for H and He will be reduced by one unit

Total number of grid points                  ...     4364
Total number of batches                      ...       38
Average number of points per batch           ...      114
Average number of grid points per atom       ...      623
UseSFitting                                  ... on

GRIDX 2
-------
General Integration Accuracy     IntAcc      ... 4.020
Radial Grid Type                 RadialGrid  ... OptM3 with GC (2021)
Angular Grid (max. ang.)         AngularGrid ... 2 (Lebedev-110)
Angular grid pruning method      GridPruning ... 4 (adaptive)
Weight generation scheme         WeightScheme... mBecke (2022)
Basis function cutoff            BFCut       ... 1.0000e-11
Integration weight cutoff        WCut        ... 1.0000e-14
Partially contracted basis set               ... on
Rotationally invariant grid construction     ... off
Angular grids for H and He will be reduced by one unit

Total number of grid points                  ...     9793
Total number of batches                      ...       81
Average number of points per batch           ...      120
Average number of grid points per atom       ...     1399
UseSFitting                                  ... on

GRIDX 3
-------
General Integration Accuracy     IntAcc      ... 4.338
Radial Grid Type                 RadialGrid  ... OptM3 with GC (2021)
Angular Grid (max. ang.)         AngularGrid ... 3 (Lebedev-194)
Angular grid pruning method      GridPruning ... 4 (adaptive)
Weight generation scheme         WeightScheme... mBecke (2022)
Basis function cutoff            BFCut       ... 1.0000e-11
Integration weight cutoff        WCut        ... 1.0000e-14
Partially contracted basis set               ... on
Rotationally invariant grid construction     ... off
Angular grids for H and He will be reduced by one unit

Total number of grid points                  ...    21686
Total number of batches                      ...      173
Average number of points per batch           ...      125
Average number of grid points per atom       ...     3098
UseSFitting                                  ... on
Initializing property integral containers    ... done (  0.1 sec)

SHARK setup successfully completed in   1.2 seconds

Maximum memory used throughout the entire STARTUP-calculation: 10.7 MB


           ************************************************************
           *        Program running with 4 parallel MPI-processes     *
           *              working on a common directory               *
           ************************************************************
-------------------------------------------------------------------------------
                                 ORCA GUESS
                   Start orbitals & Density for SCF / CASSCF
-------------------------------------------------------------------------------

------------
SCF SETTINGS
------------
Hamiltonian:
 Density Functional     Method          .... DFT(GTOs)
 Exchange Functional    Exchange        .... PBE
   PBE kappa parameter   XKappa         ....  0.804000
   PBE mue parameter    XMuePBE         ....  0.219520
 Correlation Functional Correlation     .... PBE
   PBE beta parameter  CBetaPBE         ....  0.066725
 LDA part of GGA corr.  LDAOpt          .... PW91-LDA
 Gradients option       PostSCFGGA      .... off
 Hybrid DFT is turned on
   Fraction HF Exchange ScalHFX         ....  0.250000
   Scaling of DF-GGA-X  ScalDFX         ....  0.750000
   Scaling of DF-GGA-C  ScalDFC         ....  1.000000
   Scaling of DF-LDA-C  ScalLDAC        ....  1.000000
   Perturbative correction              ....  0.000000
   NL short-range parameter             ....  6.900000
 RI-approximation to the Coulomb term is turned on
   Number of AuxJ basis functions       .... 229
   RIJ-COSX (HFX calculated with COS-X)).... on


General Settings:
 Integral files         IntName         .... CS_PdOAc_005_opt_01
 Hartree-Fock type      HFTyp           .... RHF
 Total Charge           Charge          ....   -1
 Multiplicity           Mult            ....    1
 Number of Electrons    NEL             ....   32
 Basis Dimension        Dim             ....   62
 Nuclear Repulsion      ENuc            ....    112.8911426129 Eh

Convergence Acceleration:
 AO-DIIS                CNVDIIS         .... on
   Start iteration      DIISMaxIt       ....     0
   Startup error        DIISStart       ....  0.200000
   # of expansion vecs  DIISMaxEq       ....     5
   Bias factor          DIISBfac        ....   1.050
   Max. coefficient     DIISMaxC        ....  10.000
 MO-DIIS                CNVKDIIS        .... off
 Trust-Rad. Augm. Hess. CNVTRAH         .... auto
   Auto Start mean grad. ratio tolernc. ....  1.125000
   Auto Start start iteration           ....    50
   Auto Start num. interpolation iter.  ....    10
   Max. Number of Micro iterations      ....    24
   Max. Number of Macro iterations      .... Maxiter - #DIIS iter
   Number of Davidson start vectors     ....     2
   Converg. threshold    (grad. norm)   ....   1.000e-05
   Grad. Scal. Fac. for Micro threshold ....   0.100
   Minimum threshold for Micro iter.    ....   1.000e-02
   NR start threshold (gradient norm)   ....   1.000e-04
   Initial trust radius                 ....   0.400
   Minimum AH scaling param. (alpha)    ....   1.000
   Maximum AH scaling param. (alpha)    .... 1000.000
   Quad. conv. algorithm                .... NR
   White noise on init. David. guess    .... on
   Maximum white noise                  ....   0.010
   Pseudo random numbers                .... off
   Inactive MOs                         .... canonical
   Orbital update algorithm             .... Taylor
   Preconditioner                       .... Diag
   Full preconditioner red. dimension   ....   250
 SOSCF                  CNVSOSCF        .... on
   Start iteration      SOSCFMaxIt      ....   150
   Startup grad/error   SOSCFStart      ....  0.001000
   Hessian update       SOSCFHessUp     .... L-BFGS
 Level Shifting         CNVShift        .... on
   Level shift para.    LevelShift      ....    0.2500
   Turn off err/grad.   ShiftErr        ....    0.0000
 Zerner damping         CNVZerner       .... off
 Static damping         CNVDamp         .... on
   Fraction old density DampFac         ....    0.8500
   Max. Damping (<1)    DampMax         ....    0.9800
   Min. Damping (>=0)   DampMin         ....    0.0000
   Turn off err/grad.   DampErr         ....    0.0300

SCF Procedure:
 Maximum # iterations   MaxIter         ....  1500
 SCF integral mode      SCFMode         .... Direct
   Integral package                     .... SHARK and LIBINT hybrid scheme
 Reset frequency        DirectResetFreq ....    20
 Integral Threshold     Thresh          ....  2.500e-11 Eh
 Primitive CutOff       TCut            ....  2.500e-12 Eh

Convergence Tolerance:
 Convergence Check Mode ConvCheckMode   .... Total+1el-Energy
 Convergence forced     ConvForced      .... 0
 Energy Change          TolE            ....  1.000e-08 Eh
 1-El. energy change                    ....  1.000e-05 Eh
 Orbital Gradient       TolG            ....  1.000e-05
 Orbital Rotation angle TolX            ....  1.000e-05
 DIIS Error             TolErr          ....  5.000e-07

------------------------------
INITIAL GUESS: MODEL POTENTIAL
------------------------------
Loading Hartree-Fock densities                     ... done
Calculating cut-offs                               ... done
Initializing the effective Hamiltonian             ... done
Setting up the integral package (SHARK)            ... done
Starting the Coulomb interaction                   ... done (   0.1 sec)
Making the grid                                    ... done (   0.1 sec)
Mapping shells                                     ... done
Starting the XC term evaluation                    ... done (   0.0 sec)
  promolecular density results
     # of electrons  =     30.999494763
     EX              =    -27.357394429
     EC              =     -1.020938111
     EX+EC           =    -28.378332541
Transforming the Hamiltonian                       ... done (   0.0 sec)
Diagonalizing the Hamiltonian                      ... done (   0.0 sec)
Back transforming the eigenvectors                 ... done (   0.0 sec)
Now organizing SCF variables                       ... done
                      ------------------
                      INITIAL GUESS DONE (   0.4 sec)
                      ------------------
             **** ENERGY FILE WAS UPDATED (CS_PdOAc_005_opt_01.en.tmp) ****
Finished Guess after   1.0 sec
Maximum memory used throughout the entire GUESS-calculation: 6.4 MB


           ************************************************************
           *        Program running with 4 parallel MPI-processes     *
           *              working on a common directory               *
           ************************************************************

-------------------------------------------------------------------------------------------
                                      ORCA LEAN-SCF
                              memory conserving SCF solver
-------------------------------------------------------------------------------------------

----------------------------------------D-I-I-S--------------------------------------------
Iteration    Energy (Eh)           Delta-E    RMSDP     MaxDP     DIISErr   Damp  Time(sec)
-------------------------------------------------------------------------------------------
               ***  Starting incremental Fock matrix formation  ***
    1    -227.8391523527876643     0.00e+00  5.64e-03  9.55e-02  2.87e-01  0.850   1.1
    2    -227.9018201968328299    -6.27e-02  6.35e-03  1.35e-01  2.08e-01  0.850   1.2
                               ***Turning on AO-DIIS***
    3    -227.9419337523403328    -4.01e-02  3.55e-03  7.24e-02  1.39e-01  0.850   1.4
    4    -227.9676694245038675    -2.57e-02  2.22e-03  4.02e-02  1.09e-01  0.850   1.1
    5    -227.9862661504240009    -1.86e-02  1.53e-03  2.39e-02  9.01e-02  0.850   2.9
    6    -228.0008059317309517    -1.45e-02  1.14e-03  1.55e-02  7.58e-02  0.850   2.9
    7    -228.0125989732073890    -1.18e-02  9.15e-04  1.12e-02  6.35e-02  0.850   1.8
    8    -228.0222776656980841    -9.68e-03  7.57e-04  8.77e-03  5.29e-02  0.850   1.6
    9    -228.0302361664323598    -7.96e-03  6.34e-04  7.07e-03  4.42e-02  0.850   1.7
   10    -228.0368119532931246    -6.58e-03  5.28e-04  5.60e-03  3.71e-02  0.850   1.7
   11    -228.0422707351112308    -5.46e-03  4.37e-04  4.37e-03  3.11e-02  0.850   1.1
   12    -228.0468204282695410    -4.55e-03  3.63e-04  3.41e-03  2.60e-02  0.850   2.1
   13    -228.0506240645724461    -3.80e-03  2.01e-03  1.80e-02  2.17e-02  0.000   1.1
   14    -228.0711656292025395    -2.05e-02  1.58e-04  3.26e-03  2.16e-03  0.000   2.1
                              *** Initializing SOSCF ***
---------------------------------------S-O-S-C-F--------------------------------------
Iteration    Energy (Eh)           Delta-E    RMSDP     MaxDP     MaxGrad    Time(sec)
--------------------------------------------------------------------------------------
   15    -228.0711770899962971    -1.15e-05  7.00e-05  1.76e-03  4.69e-04     2.8
               *** Restarting incremental Fock matrix formation ***
   16    -228.0711536955882934     2.34e-05  5.13e-05  1.25e-03  3.80e-05     1.8
   17    -228.0711537092714707    -1.37e-08  1.05e-05  1.80e-04  5.89e-05     1.2
   18    -228.0711537412294660    -3.20e-08  8.95e-06  2.13e-04  1.07e-05     1.8
   19    -228.0711537431663487    -1.94e-09  1.39e-06  2.36e-05  6.14e-06     1.0
                 **** Energy Check signals convergence ****

               *****************************************************
               *                     SUCCESS                       *
               *           SCF CONVERGED AFTER  19 CYCLES          *
               *****************************************************

Recomputing exchange energy using gridx3       ... done (    1.252 sec)
Old exchange energy                            :     -7.033998106 Eh
New exchange energy                            :     -7.033996323 Eh
Exchange energy change after final integration :      0.000001783 Eh
Total energy after final integration           :   -228.071151960 Eh
             **** ENERGY FILE WAS UPDATED (CS_PdOAc_005_opt_01.en.tmp) ****

----------------
TOTAL SCF ENERGY
----------------

Total Energy       :       -228.07115196001274 Eh           -6206.13156 eV

Components:
Nuclear Repulsion  :        112.89114261290746 Eh            3071.92416 eV
Electronic Energy  :       -340.96229635607381 Eh           -9278.05577 eV
One Electron Energy:       -543.56923475354870 Eh          -14791.27085 eV
Two Electron Energy:        202.60693839747489 Eh            5513.21508 eV

Virial components:
Potential Energy   :       -454.64349339457613 Eh          -12371.47841 eV
Kinetic Energy     :        226.57234143456338 Eh            6165.34685 eV
Virial Ratio       :          2.00661515221125

DFT components:
N(Alpha)           :       15.999997863161 electrons
N(Beta)            :       15.999997863161 electrons
N(Total)           :       31.999995726322 electrons
E(X)               :      -21.077793764069 Eh       
E(C)               :       -1.075262604725 Eh       
E(XC)              :      -22.153056368794 Eh       

---------------
SCF CONVERGENCE
---------------

  Last Energy change         ...    1.9369e-09  Tolerance :   1.0000e-08
  Last MAX-Density change    ...    2.3602e-05  Tolerance :   1.0000e-07
  Last RMS-Density change    ...    1.3850e-06  Tolerance :   5.0000e-09
  Last DIIS Error            ...    4.6948e-04  Tolerance :   5.0000e-07
  Last Orbital Gradient      ...    6.1357e-06  Tolerance :   1.0000e-05
  Last Orbital Rotation      ...    4.8284e-06  Tolerance :   1.0000e-05


----------------
ORBITAL ENERGIES
----------------

  NO   OCC          E(Eh)            E(eV) 
   0   2.0000     -18.903324      -514.3856 
   1   2.0000     -18.901875      -514.3462 
   2   2.0000     -10.076784      -274.2032 
   3   2.0000     -10.021161      -272.6896 
   4   2.0000      -0.797466       -21.7001 
   5   2.0000      -0.704028       -19.1576 
   6   2.0000      -0.537274       -14.6200 
   7   2.0000      -0.291576        -7.9342 
   8   2.0000      -0.252155        -6.8615 
   9   2.0000      -0.240729        -6.5506 
  10   2.0000      -0.204558        -5.5663 
  11   2.0000      -0.163439        -4.4474 
  12   2.0000      -0.144961        -3.9446 
  13   2.0000      -0.019516        -0.5311 
  14   2.0000      -0.015453        -0.4205 
  15   2.0000      -0.000630        -0.0171 
  16   0.0000       0.254854         6.9349 
  17   0.0000       0.278502         7.5784 
  18   0.0000       0.315001         8.5716 
  19   0.0000       0.349347         9.5062 
  20   0.0000       0.444565        12.0972 
  21   0.0000       0.504438        13.7265 
  22   0.0000       0.585355        15.9283 
  23   0.0000       0.671792        18.2804 
  24   0.0000       0.734916        19.9981 
  25   0.0000       0.777885        21.1673 
  26   0.0000       0.790487        21.5102 
*Only the first 10 virtual orbitals were printed.

                    ********************************
                    * MULLIKEN POPULATION ANALYSIS *
                    ********************************

-----------------------
MULLIKEN ATOMIC CHARGES
-----------------------
   0 O :   -0.475096
   1 C :    0.085391
   2 O :   -0.468734
   3 C :   -0.333147
   4 H :    0.073131
   5 H :    0.062242
   6 H :    0.056213
Sum of atomic charges:   -1.0000000

--------------------------------
MULLIKEN REDUCED ORBITAL CHARGES
--------------------------------
  0 O s       :     3.754402  s :     3.754402
      pz      :     1.610679  p :     4.706359
      px      :     1.572122
      py      :     1.523558
      dz2     :     0.001959  d :     0.014335
      dxz     :     0.002900
      dyz     :     0.002047
      dx2y2   :     0.002939
      dxy     :     0.004491

  1 C s       :     3.036372  s :     3.036372
      pz      :     0.912454  p :     2.732007
      px      :     0.906443
      py      :     0.913111
      dz2     :     0.016985  d :     0.146229
      dxz     :     0.036322
      dyz     :     0.015177
      dx2y2   :     0.038438
      dxy     :     0.039306

  2 O s       :     3.752134  s :     3.752134
      pz      :     1.633549  p :     4.702293
      px      :     1.371681
      py      :     1.697062
      dz2     :     0.001856  d :     0.014307
      dxz     :     0.004089
      dyz     :     0.000334
      dx2y2   :     0.004810
      dxy     :     0.003218

  3 C s       :     3.080038  s :     3.080038
      pz      :     1.107506  p :     3.222313
      px      :     1.043907
      py      :     1.070901
      dz2     :     0.007941  d :     0.030795
      dxz     :     0.002278
      dyz     :     0.006958
      dx2y2   :     0.004284
      dxy     :     0.009334

  4 H s       :     0.926869  s :     0.926869

  5 H s       :     0.937758  s :     0.937758

  6 H s       :     0.943787  s :     0.943787



                     *******************************
                     * LOEWDIN POPULATION ANALYSIS *
                     *******************************

----------------------
LOEWDIN ATOMIC CHARGES
----------------------
   0 O :   -0.415778
   1 C :   -0.067566
   2 O :   -0.410544
   3 C :   -0.404132
   4 H :    0.106749
   5 H :    0.097959
   6 H :    0.093313

-------------------------------
LOEWDIN REDUCED ORBITAL CHARGES
-------------------------------
  0 O s       :     3.575552  s :     3.575552
      pz      :     1.620187  p :     4.815031
      px      :     1.628299
      py      :     1.566546
      dz2     :     0.003068  d :     0.025195
      dxz     :     0.004903
      dyz     :     0.003822
      dx2y2   :     0.004296
      dxy     :     0.009106

  1 C s       :     2.852374  s :     2.852374
      pz      :     0.921360  p :     2.879546
      px      :     1.020357
      py      :     0.937828
      dz2     :     0.038927  d :     0.335647
      dxz     :     0.079170
      dyz     :     0.035351
      dx2y2   :     0.091389
      dxy     :     0.090809

  2 O s       :     3.575560  s :     3.575560
      pz      :     1.636822  p :     4.809844
      px      :     1.476394
      py      :     1.696628
      dz2     :     0.003275  d :     0.025140
      dxz     :     0.006799
      dyz     :     0.000449
      dx2y2   :     0.010016
      dxy     :     0.004602

  3 C s       :     2.978597  s :     2.978597
      pz      :     1.131982  p :     3.352920
      px      :     1.108055
      py      :     1.112884
      dz2     :     0.017987  d :     0.072615
      dxz     :     0.005358
      dyz     :     0.017844
      dx2y2   :     0.009467
      dxy     :     0.021958

  4 H s       :     0.893251  s :     0.893251

  5 H s       :     0.902041  s :     0.902041

  6 H s       :     0.906687  s :     0.906687



                      *****************************
                      * MAYER POPULATION ANALYSIS *
                      *****************************

  NA   - Mulliken gross atomic population
  ZA   - Total nuclear charge
  QA   - Mulliken gross atomic charge
  VA   - Mayer's total valence
  BVA  - Mayer's bonded valence
  FA   - Mayer's free valence

  ATOM       NA         ZA         QA         VA         BVA        FA
  0 O      8.4751     8.0000    -0.4751     1.9586     1.9586    -0.0000
  1 C      5.9146     6.0000     0.0854     4.6446     4.6446    -0.0000
  2 O      8.4687     8.0000    -0.4687     1.9817     1.9817    -0.0000
  3 C      6.3331     6.0000    -0.3331     3.7489     3.7489    -0.0000
  4 H      0.9269     1.0000     0.0731     0.9615     0.9615    -0.0000
  5 H      0.9378     1.0000     0.0622     0.9795     0.9795     0.0000
  6 H      0.9438     1.0000     0.0562     0.9888     0.9888    -0.0000

  Mayer bond orders larger than 0.100000
B(  0-O ,  1-C ) :   1.8221 B(  0-O ,  2-O ) :   0.1165 B(  1-C ,  2-O ) :   1.8401 
B(  1-C ,  3-C ) :   0.9732 B(  3-C ,  4-H ) :   0.9527 B(  3-C ,  5-H ) :   0.9523 
B(  3-C ,  6-H ) :   0.9523 

-------
TIMINGS
-------

Total SCF time: 0 days 0 hours 0 min 34 sec 

Total time                  ....      34.852 sec
Sum of individual times     ....      32.920 sec  ( 94.5%)

SCF preparation             ....       0.590 sec  (  1.7%)
Fock matrix formation       ....      21.464 sec  ( 61.6%)
  Startup                   ....       1.310 sec  (  6.1% of F)
  Split-RI-J                ....       3.705 sec  ( 17.3% of F)
  Chain of spheres X        ....      11.041 sec  ( 51.4% of F)
  XC integration            ....       3.197 sec  ( 14.9% of F)
    XC Preparation          ....       0.000 sec  (  0.0% of XC)
    Basis function eval.    ....       0.423 sec  ( 13.2% of XC)
    Density eval.           ....       0.151 sec  (  4.7% of XC)
    XC-Functional eval.     ....       0.169 sec  (  5.3% of XC)
    XC-Potential eval.      ....       0.149 sec  (  4.7% of XC)
Diagonalization             ....       0.000 sec  (  0.0%)
Density matrix formation    ....       3.257 sec  (  9.3%)
Total Energy calculation    ....       0.949 sec  (  2.7%)
Population analysis         ....       0.215 sec  (  0.6%)
Orbital Transformation      ....       0.171 sec  (  0.5%)
Orbital Orthonormalization  ....       0.000 sec  (  0.0%)
DIIS solution               ....       5.835 sec  ( 16.7%)
SOSCF solution              ....       0.438 sec  (  1.3%)
Finished LeanSCF after  35.0 sec

Maximum memory used throughout the entire LEANSCF-calculation: 7.4 MB


-------------------------------------------------------------------------------
                          DFT DISPERSION CORRECTION                            
                                                                               
                              DFTD3 V3.1  Rev 1                                
                          USING Becke-Johnson damping                          
-------------------------------------------------------------------------------
The PBE0 functional is recognized
Active option DFTDOPT                   ...         4   

molecular C6(AA) [au] = 468.893522 


            DFT-D V3
 parameters
 s6 scaling factor         :     1.0000 
 a1 scaling factor         :     0.4145 
 s8 scaling factor         :     1.2177 
 a2 scaling factor         :     4.8593 
 ad hoc parameters k1-k3   :    16.0000     1.3333    -4.0000 

 Edisp/kcal,au: -1.902822092340  -0.003032339698 
 E6   /kcal   :  -1.223371769 
 E8   /kcal   :  -0.679450323 
 % E8         :  35.707506547 

-------------------------   ----------------
Dispersion correction           -0.003032340
-------------------------   ----------------


-------------------------   --------------------
FINAL SINGLE POINT ENERGY      -228.074184299711
-------------------------   --------------------



           ************************************************************
           *        Program running with 4 parallel MPI-processes     *
           *              working on a common directory               *
           ************************************************************
------------------------------------------------------------------------------
                         ORCA SCF GRADIENT CALCULATION
------------------------------------------------------------------------------

Nuc. rep. gradient        (SHARK) ... done (  0.0 sec)
HCore & Overlap gradient  (SHARK) ... done (  0.0 sec)
Split-RIJ-J gradient      (SHARK) ... done (  0.3 sec)
COSX-gradient                     ... done (  1.2 sec)
XC gradient                       ... done (  0.3 sec)
Dispersion correction             ... done (  0.1 sec)

-------------------
DISPERSION GRADIENT
-------------------

   1   O   :   -0.000023883    0.000061687   -0.000051714
   2   C   :    0.000005664    0.000012951   -0.000013721
   3   O   :    0.000065953    0.000029355   -0.000047841
   4   C   :   -0.000007124   -0.000015464    0.000016795
   5   H   :   -0.000014195   -0.000014075    0.000048246
   6   H   :   -0.000034843   -0.000032273    0.000020569
   7   H   :    0.000008427   -0.000042182    0.000027665

Difference to translation invariance:
           :    0.0000000000    0.0000000000    0.0000000000

Difference to rotation invariance:
           :   -0.0000000000    0.0000000000   -0.0000000000

Norm of the Dispersion gradient    ...    0.0001534013
RMS gradient                       ...    0.0000334749
MAX gradient                       ...    0.0000659533

------------------
CARTESIAN GRADIENT
------------------

   1   O   :    0.001036438    0.005694124   -0.006354990
   2   C   :   -0.013227272   -0.027082323    0.031871884
   3   O   :    0.004276330    0.004403301   -0.006017698
   4   C   :    0.001767137    0.004382131   -0.005811559
   5   H   :    0.002194425   -0.002951883   -0.011096115
   6   H   :    0.011289112    0.005323230    0.000496141
   7   H   :   -0.007336170    0.010231420   -0.003087663

Difference to translation invariance:
           :   -0.0000000001    0.0000000001   -0.0000000001

Difference to rotation invariance:
           :    0.0000197254    0.0000194041    0.0000862063

Norm of the Cartesian gradient     ...    0.0508804164
RMS gradient                       ...    0.0111030171
MAX gradient                       ...    0.0318718842

-------
TIMINGS
-------

Total SCF gradient time     ....        1.882 sec

Densities                   ....       0.000 sec  (  0.0%)
One electron gradient       ....       0.014 sec  (  0.8%)
RI-J Coulomb gradient       ....       0.260 sec  ( 13.8%)
COSX gradient               ....       1.217 sec  ( 64.7%)
XC gradient                 ....       0.312 sec  ( 16.6%)

Maximum memory used throughout the entire SCFGRAD-calculation: 25.9 MB
------------------------------------------------------------------------------
                         ORCA GEOMETRY RELAXATION STEP
------------------------------------------------------------------------------

Reading the OPT-File                    .... done
Getting information on internals        .... done
Copying old internal coords+grads       .... done
Making the new internal coordinates     .... (2022 redundants) done
Validating the new internal coordinates .... (2022 redundants) done
Calculating the B-matrix                .... done
Calculating the G,G- and P matrices     .... done
Transforming gradient to internals      .... done
Projecting the internal gradient        .... done
Number of atoms                         ....   7
Number of internal coordinates          ....  20
Current Energy                          ....  -228.074184300 Eh
Current gradient norm                   ....     0.050880416 Eh/bohr
Maximum allowed component of the step   ....  0.300
Current trust radius                    ....  0.300
Evaluating the initial hessian          ....  (Almloef) done
Projecting the Hessian                  .... done
Forming the augmented Hessian           .... done
Diagonalizing the augmented Hessian     .... done
Last element of RFO vector              ....  0.992784778
Lowest eigenvalues of augmented Hessian:
 -0.003634783  0.012274714  0.012419940  0.141370147  0.185301366
Length of the computed step             ....  0.120781366
The final length of the internal step   ....  0.120781366
Converting the step to Cartesian space:
 Initial RMS(Int)=    0.0270075344
Transforming coordinates:
 Iter   0:  RMS(Cart)=    0.0260346241 RMS(Int)=    0.0268660357
done
Storing new coordinates                 .... done

                                .--------------------.
          ----------------------|Geometry convergence|-------------------------
          Item                value                   Tolerance       Converged
          ---------------------------------------------------------------------
          RMS gradient        0.0084967518            0.0001000000      NO
          MAX gradient        0.0270247836            0.0003000000      NO
          RMS step            0.0270075344            0.0020000000      NO
          MAX step            0.0658143817            0.0040000000      NO
          ........................................................
          Max(Bonds)      0.0348      Max(Angles)    1.25
          Max(Dihed)        2.41      Max(Improp)    0.00
          ---------------------------------------------------------------------

The optimization has not yet converged - more geometry cycles are needed


    ---------------------------------------------------------------------------
                         Redundant Internal Coordinates
                            (Angstroem and degrees)

        Definition                    Value    dE/dq     Step     New-Value
    ----------------------------------------------------------------------------
     1. B(C   1,O   0)                1.2553  0.004984 -0.0029    1.2524   
     2. B(O   2,C   1)                1.2555  0.005648 -0.0032    1.2522   
     3. B(C   3,C   1)                1.5067 -0.027025  0.0348    1.5415   
     4. B(H   4,C   3)                1.0909 -0.011254  0.0164    1.1073   
     5. B(H   5,C   3)                1.0873 -0.012243  0.0176    1.1049   
     6. B(H   6,C   3)                1.0857 -0.012732  0.0182    1.1040   
     7. A(O   2,C   1,C   3)          116.85  0.004702   -0.59    116.27   
     8. A(O   0,C   1,C   3)          116.34  0.005950   -0.75    115.58   
     9. A(O   0,C   1,O   2)          126.80 -0.010624    1.25    128.05   
    10. A(H   4,C   3,H   5)          108.08  0.003160   -0.66    107.42   
    11. A(C   1,C   3,H   5)          109.89 -0.002094    0.37    110.25   
    12. A(C   1,C   3,H   6)          110.61 -0.002457    0.48    111.09   
    13. A(H   5,C   3,H   6)          111.09  0.002434   -0.42    110.67   
    14. A(H   4,C   3,H   6)          109.15  0.002571   -0.41    108.73   
    15. A(C   1,C   3,H   4)          107.93 -0.003619    0.64    108.57   
    16. D(H   4,C   3,C   1,O   2)    101.23  0.000368   -2.19     99.03   
    17. D(H   5,C   3,C   1,O   0)     40.10 -0.000269    1.55     41.65   
    18. D(H   5,C   3,C   1,O   2)   -141.13  0.000905   -2.41   -143.54   
    19. D(H   6,C   3,C   1,O   0)    163.11 -0.000284    1.60    164.71   
    20. D(H   4,C   3,C   1,O   0)    -77.55 -0.000806    1.77    -75.78   
    ----------------------------------------------------------------------------

Geometry step timings:
Preparation and reading OPT file:      0.005 s (12.821 %)
Internal coordinates            :      0.000 s ( 0.091 %)
B/P matrices and projection     :      0.000 s ( 0.653 %)
Hessian update/contruction      :      0.019 s (50.122 %)
Making the step                 :      0.000 s ( 0.386 %)
Converting the step to Cartesian:      0.000 s ( 0.187 %)
Storing new data                :      0.006 s (15.469 %)
Checking convergence            :      0.000 s ( 0.013 %)
Final printing                  :      0.008 s (20.226 %)
Total time                      :      0.037 s

Time for energy+gradient        :     48.066 s
Time for complete geometry iter :     51.323 s

         *************************************************************
         *                GEOMETRY OPTIMIZATION CYCLE   2            *
         *************************************************************
---------------------------------
CARTESIAN COORDINATES (ANGSTROEM)
---------------------------------
  O      0.002728    0.015403   -0.004514
  C      0.894161   -0.763010    0.405263
  O      2.112308   -0.761295    0.115022
  C      0.454738   -1.762559    1.493408
  H      0.371188   -1.221707    2.456028
  H     -0.543824   -2.171767    1.256075
  H      1.192335   -2.576124    1.606721

----------------------------
CARTESIAN COORDINATES (A.U.)
----------------------------
  NO LB      ZA    FRAG     MASS         X           Y           Z
   0 O     8.0000    0    15.999    0.005156    0.029108   -0.008530
   1 C     6.0000    0    12.011    1.689719   -1.441880    0.765836
   2 O     8.0000    0    15.999    3.991684   -1.438638    0.217361
   3 C     6.0000    0    12.011    0.859331   -3.330754    2.822133
   4 H     1.0000    0     1.008    0.701444   -2.308692    4.641220
   5 H     1.0000    0     1.008   -1.027678   -4.104046    2.373639
   6 H     1.0000    0     1.008    2.253186   -4.868169    3.036262

--------------------------------
INTERNAL COORDINATES (ANGSTROEM)
--------------------------------
 O      0   0   0     0.000000000000     0.00000000     0.00000000
 C      1   0   0     1.252396044160     0.00000000     0.00000000
 O      2   1   0     1.252248219443   128.00364457     0.00000000
 C      2   1   3     1.541509406190   115.53639669   174.09150994
 H      4   2   1     1.107311309376   108.56932799   284.22129412
 H      4   2   1     1.104945414744   110.25095427    41.64864545
 H      4   2   1     1.103981739923   111.09061821   164.70597591

---------------------------
INTERNAL COORDINATES (A.U.)
---------------------------
 O      0   0   0     0.000000000000     0.00000000     0.00000000
 C      1   0   0     2.366685534668     0.00000000     0.00000000
 O      2   1   0     2.366406186437   128.00364457     0.00000000
 C      2   1   3     2.913030610563   115.53639669   174.09150994
 H      4   2   1     2.092515119714   108.56932799   284.22129412
 H      4   2   1     2.088044226798   110.25095427    41.64864545
 H      4   2   1     2.086223145305   111.09061821   164.70597591



           ************************************************************
           *        Program running with 4 parallel MPI-processes     *
           *              working on a common directory               *
           ************************************************************
------------------------------------------------------------------------------
                   ___                                                        
                  /   \      - P O W E R E D   B Y -                         
                 /     \                                                     
                 |  |  |   _    _      __       _____    __    __             
                 |  |  |  | |  | |    /  \     |  _  \  |  |  /  |          
                  \  \/   | |  | |   /    \    | | | |  |  | /  /          
                 / \  \   | |__| |  /  /\  \   | |_| |  |  |/  /          
                |  |  |   |  __  | /  /__\  \  |    /   |      \           
                |  |  |   | |  | | |   __   |  |    \   |  |\   \          
                \     /   | |  | | |  |  |  |  | |\  \  |  | \   \       
                 \___/    |_|  |_| |__|  |__|  |_| \__\ |__|  \__/        
                                                                              
                      - O R C A' S   B I G   F R I E N D -                    
                                      &                                       
                       - I N T E G R A L  F E E D E R -                       
                                                                              
 v1 FN, 2020, v2 2021, v3 2022-2024                                           
------------------------------------------------------------------------------


----------------------
SHARK INTEGRAL PACKAGE
----------------------

Number of atoms                             ...      7
Number of basis functions                   ...     62
Number of shells                            ...     30
Maximum angular momentum                    ...      2
Integral batch strategy                     ... SHARK/LIBINT Hybrid
RI-J (if used) integral strategy            ... SPLIT-RIJ (Revised 2003 algorithm where possible)
Printlevel                                  ...      1
Contraction scheme used                     ... SEGMENTED contraction
Prescreening option                         ... SCHWARTZ
   Thresh                                   ... 2.500e-11
   Tcut                                     ... 2.500e-12
   Tpresel                                  ... 2.500e-12 
Coulomb Range Separation                    ... NOT USED
Exchange Range Separation                   ... NOT USED
Multipole approximations                    ... NOT USED
Finite Nucleus Model                        ... NOT USED
CABS basis                                  ... NOT available
Auxiliary Coulomb fitting basis             ... AVAILABLE
   # of basis functions in Aux-J            ...    229
   # of shells in Aux-J                     ...     75
   Maximum angular momentum in Aux-J        ...      4
Auxiliary J/K fitting basis                 ... NOT available
Auxiliary Correlation fitting basis         ... NOT available
Auxiliary 'external' fitting basis          ... NOT available

Checking pre-screening integrals            ... done (  0.0 sec) Dimension = 30
Check shell pair data                       ... done (  0.0 sec)
Shell pair information
Shell pair cut-off parameter TPreSel        ...   2.5e-12
Total number of shell pairs                 ...       465
Shell pairs after pre-screening             ...       462
Total number of primitive shell pairs       ...      1891
Primitive shell pairs kept                  ...      1524
          la=0 lb=0:    168 shell pairs
          la=1 lb=0:    144 shell pairs
          la=1 lb=1:     36 shell pairs
          la=2 lb=0:     72 shell pairs
          la=2 lb=1:     32 shell pairs
          la=2 lb=2:     10 shell pairs

Calculating one electron integrals          ... done (  0.0 sec)
Calculating RI/J V-Matrix + Cholesky decomp.... done (  0.0 sec)
Calculating Nuclear repulsion               ... done (  0.0 sec) ENN=    112.125886809661 Eh

Diagonalization of the overlap matrix:
Smallest eigenvalue                        ... 4.701e-03
Time for diagonalization                   ...    0.001 sec
Threshold for overlap eigenvalues          ... 1.000e-07
Number of eigenvalues below threshold      ... 0
Time for construction of square roots      ...    0.016 sec
Total time needed                          ...    0.048 sec

-------------------
DFT GRID GENERATION
-------------------

General Integration Accuracy     IntAcc      ... 4.388
Radial Grid Type                 RadialGrid  ... OptM3 with GC (2021)
Angular Grid (max. ang.)         AngularGrid ... 4 (Lebedev-302)
Angular grid pruning method      GridPruning ... 4 (adaptive)
Weight generation scheme         WeightScheme... mBecke (2022)
Basis function cutoff            BFCut       ... 1.0000e-11
Integration weight cutoff        WCut        ... 1.0000e-14
Partially contracted basis set               ... off
Rotationally invariant grid construction     ... off
Angular grids for H and He will be reduced by one unit

Total number of grid points                  ...    34183
Total number of batches                      ...      537
Average number of points per batch           ...       63
Average number of grid points per atom       ...     4883

--------------------
COSX GRID GENERATION
--------------------

GRIDX 1
-------
General Integration Accuracy     IntAcc      ... 3.816
Radial Grid Type                 RadialGrid  ... OptM3 with GC (2021)
Angular Grid (max. ang.)         AngularGrid ... 1 (Lebedev-50)
Angular grid pruning method      GridPruning ... 4 (adaptive)
Weight generation scheme         WeightScheme... mBecke (2022)
Basis function cutoff            BFCut       ... 1.0000e-11
Integration weight cutoff        WCut        ... 1.0000e-14
Partially contracted basis set               ... on
Rotationally invariant grid construction     ... off
Angular grids for H and He will be reduced by one unit

Total number of grid points                  ...     4368
Total number of batches                      ...       38
Average number of points per batch           ...      114
Average number of grid points per atom       ...      624
UseSFitting                                  ... on

GRIDX 2
-------
General Integration Accuracy     IntAcc      ... 4.020
Radial Grid Type                 RadialGrid  ... OptM3 with GC (2021)
Angular Grid (max. ang.)         AngularGrid ... 2 (Lebedev-110)
Angular grid pruning method      GridPruning ... 4 (adaptive)
Weight generation scheme         WeightScheme... mBecke (2022)
Basis function cutoff            BFCut       ... 1.0000e-11
Integration weight cutoff        WCut        ... 1.0000e-14
Partially contracted basis set               ... on
Rotationally invariant grid construction     ... off
Angular grids for H and He will be reduced by one unit

Total number of grid points                  ...     9803
Total number of batches                      ...       81
Average number of points per batch           ...      121
Average number of grid points per atom       ...     1400
UseSFitting                                  ... on

GRIDX 3
-------
General Integration Accuracy     IntAcc      ... 4.338
Radial Grid Type                 RadialGrid  ... OptM3 with GC (2021)
Angular Grid (max. ang.)         AngularGrid ... 3 (Lebedev-194)
Angular grid pruning method      GridPruning ... 4 (adaptive)
Weight generation scheme         WeightScheme... mBecke (2022)
Basis function cutoff            BFCut       ... 1.0000e-11
Integration weight cutoff        WCut        ... 1.0000e-14
Partially contracted basis set               ... on
Rotationally invariant grid construction     ... off
Angular grids for H and He will be reduced by one unit

Total number of grid points                  ...    21693
Total number of batches                      ...      173
Average number of points per batch           ...      125
Average number of grid points per atom       ...     3099
UseSFitting                                  ... on
Initializing property integral containers    ... done (  0.1 sec)

SHARK setup successfully completed in   1.3 seconds

Maximum memory used throughout the entire STARTUP-calculation: 10.7 MB


           ************************************************************
           *        Program running with 4 parallel MPI-processes     *
           *              working on a common directory               *
           ************************************************************
Occupation numbers will be reassigned to an Aufbau configuration
             **** ENERGY FILE WAS UPDATED (CS_PdOAc_005_opt_01.en.tmp) ****
Finished Guess after   0.8 sec
Maximum memory used throughout the entire GUESS-calculation: 6.0 MB


           ************************************************************
           *        Program running with 4 parallel MPI-processes     *
           *              working on a common directory               *
           ************************************************************
----------------------------------------D-I-I-S--------------------------------------------
Iteration    Energy (Eh)           Delta-E    RMSDP     MaxDP     DIISErr   Damp  Time(sec)
-------------------------------------------------------------------------------------------
               ***  Starting incremental Fock matrix formation  ***
    1    -228.0717007310598774     0.00e+00  3.07e-04  2.83e-03  1.24e-02  0.850   1.1
    2    -228.0719137316725664    -2.13e-04  3.24e-04  2.71e-03  1.10e-02  0.850   1.1
                               ***Turning on AO-DIIS***
    3    -228.0721011894582944    -1.87e-04  2.92e-04  2.57e-03  9.65e-03  0.850   2.7
    4    -228.0722580938106603    -1.57e-04  1.73e-03  1.54e-02  8.33e-03  0.000   1.1
    5    -228.0732057346087345    -9.48e-04  1.54e-04  2.08e-03  1.50e-03  0.000   2.1
                              *** Initializing SOSCF ***
---------------------------------------S-O-S-C-F--------------------------------------
Iteration    Energy (Eh)           Delta-E    RMSDP     MaxDP     MaxGrad    Time(sec)
--------------------------------------------------------------------------------------
    6    -228.0732134755747893    -7.74e-06  5.60e-05  5.36e-04  8.18e-04     1.2
               *** Restarting incremental Fock matrix formation ***
    7    -228.0732154722275595    -2.00e-06  5.03e-05  5.69e-04  1.29e-04     1.0
    8    -228.0732156909956529    -2.19e-07  2.01e-05  2.80e-04  1.11e-04     1.0
    9    -228.0732158638703027    -1.73e-07  6.74e-06  1.04e-04  2.18e-05     3.2
   10    -228.0732158607488600     3.12e-09  3.61e-06  5.86e-05  2.41e-05     1.7
                 **** Energy Check signals convergence ****

               *****************************************************
               *                     SUCCESS                       *
               *           SCF CONVERGED AFTER  10 CYCLES          *
               *****************************************************

Recomputing exchange energy using gridx3       ... done (    0.336 sec)
Old exchange energy                            :     -7.025912031 Eh
New exchange energy                            :     -7.025917196 Eh
Exchange energy change after final integration :     -0.000005166 Eh
Total energy after final integration           :   -228.073221026 Eh
             **** ENERGY FILE WAS UPDATED (CS_PdOAc_005_opt_01.en.tmp) ****

----------------
TOTAL SCF ENERGY
----------------

Total Energy       :       -228.07322102627006 Eh           -6206.18786 eV

Components:
Nuclear Repulsion  :        112.12588680966051 Eh            3051.10050 eV
Electronic Energy  :       -340.19910267040939 Eh           -9257.28822 eV
One Electron Energy:       -542.01368157933553 Eh          -14748.94210 eV
Two Electron Energy:        201.81457890892617 Eh            5491.65388 eV

Virial components:
Potential Energy   :       -454.53886662482364 Eh          -12368.63137 eV
Kinetic Energy     :        226.46564559855355 Eh            6162.44351 eV
Virial Ratio       :          2.00709853992851

DFT components:
N(Alpha)           :       15.999998441472 electrons
N(Beta)            :       15.999998441472 electrons
N(Total)           :       31.999996882944 electrons
E(X)               :      -21.056535244388 Eh       
E(C)               :       -1.073311159388 Eh       
E(XC)              :      -22.129846403776 Eh       

---------------
SCF CONVERGENCE
---------------

  Last Energy change         ...   -3.1214e-09  Tolerance :   1.0000e-08
  Last MAX-Density change    ...    5.8615e-05  Tolerance :   1.0000e-07
  Last RMS-Density change    ...    3.6129e-06  Tolerance :   5.0000e-09
  Last DIIS Error            ...    8.1782e-04  Tolerance :   5.0000e-07
  Last Orbital Gradient      ...    2.4060e-05  Tolerance :   1.0000e-05
  Last Orbital Rotation      ...    2.0775e-05  Tolerance :   1.0000e-05


Total SCF time: 0 days 0 hours 0 min 17 sec 
Finished LeanSCF after  18.0 sec

Maximum memory used throughout the entire LEANSCF-calculation: 7.6 MB


-------------------------------------------------------------------------------
                          DFT DISPERSION CORRECTION                            
                                                                               
                              DFTD3 V3.1  Rev 1                                
                          USING Becke-Johnson damping                          
-------------------------------------------------------------------------------
-------------------------   ----------------
Dispersion correction           -0.003019758
-------------------------   ----------------


-------------------------   --------------------
FINAL SINGLE POINT ENERGY      -228.076240784764
-------------------------   --------------------



           ************************************************************
           *        Program running with 4 parallel MPI-processes     *
           *              working on a common directory               *
           ************************************************************
------------------------------------------------------------------------------
                         ORCA SCF GRADIENT CALCULATION
------------------------------------------------------------------------------

Nuc. rep. gradient        (SHARK) ... done (  0.0 sec)
HCore & Overlap gradient  (SHARK) ... done (  0.0 sec)
Split-RIJ-J gradient      (SHARK) ... done (  0.5 sec)
COSX-gradient                     ... done (  1.2 sec)
XC gradient                       ... done (  0.3 sec)
Dispersion correction             ... done (  0.1 sec)

-------------------
DISPERSION GRADIENT
-------------------

   1   O   :   -0.000023866    0.000063274   -0.000052883
   2   C   :    0.000006067    0.000013767   -0.000015035
   3   O   :    0.000067346    0.000030829   -0.000048963
   4   C   :   -0.000007802   -0.000016553    0.000018144
   5   H   :   -0.000014484   -0.000015994    0.000047877
   6   H   :   -0.000033757   -0.000033078    0.000022191
   7   H   :    0.000006497   -0.000042245    0.000028669

Difference to translation invariance:
           :    0.0000000000    0.0000000000   -0.0000000000

Difference to rotation invariance:
           :   -0.0000000000    0.0000000000    0.0000000000

Norm of the Dispersion gradient    ...    0.0001565321
RMS gradient                       ...    0.0000341581
MAX gradient                       ...    0.0000673459

------------------
CARTESIAN GRADIENT
------------------

   1   O   :    0.000503215    0.007360387   -0.001487960
   2   C   :   -0.009041639   -0.021317698    0.007572411
   3   O   :    0.005000449    0.005640363   -0.001294527
   4   C   :    0.001947349    0.005294359   -0.001617640
   5   H   :    0.000338611    0.000682485   -0.000527434
   6   H   :    0.000878668    0.001087795   -0.001376138
   7   H   :    0.000373347    0.001252309   -0.001268713

Difference to translation invariance:
           :   -0.0000000000    0.0000000001   -0.0000000001

Difference to rotation invariance:
           :   -0.0000004448    0.0000288976    0.0000974131

Norm of the Cartesian gradient     ...    0.0274068899
RMS gradient                       ...    0.0059806737
MAX gradient                       ...    0.0213176977

-------
TIMINGS
-------

Total SCF gradient time     ....        2.121 sec

Densities                   ....       0.000 sec  (  0.0%)
One electron gradient       ....       0.014 sec  (  0.7%)
RI-J Coulomb gradient       ....       0.520 sec  ( 24.5%)
COSX gradient               ....       1.170 sec  ( 55.2%)
XC gradient                 ....       0.333 sec  ( 15.7%)

Maximum memory used throughout the entire SCFGRAD-calculation: 25.9 MB
------------------------------------------------------------------------------
                         ORCA GEOMETRY RELAXATION STEP
------------------------------------------------------------------------------

Reading the OPT-File                    .... done
Getting information on internals        .... done
Copying old internal coords+grads       .... done
Making the new internal coordinates     .... (2022 redundants) done
Validating the new internal coordinates .... (2022 redundants) done
Calculating the B-matrix                .... done
Calculating the G,G- and P matrices     .... done
Transforming gradient to internals      .... done
Projecting the internal gradient        .... done
Number of atoms                         ....   7
Number of internal coordinates          ....  20
Current Energy                          ....  -228.076240785 Eh
Current gradient norm                   ....     0.027406890 Eh/bohr
Maximum allowed component of the step   ....  0.300
Current trust radius                    ....  0.300
Updating the Hessian (BFGS)             .... done
Forming the augmented Hessian           .... done
Diagonalizing the augmented Hessian     .... done
Last element of RFO vector              ....  0.914485589
Lowest eigenvalues of augmented Hessian:
 -0.004882878  0.012274644  0.021132813  0.140867183  0.180643601
Length of the computed step             ....  0.442454726
Warning: the length of the step is outside the trust region - taking restricted step instead
The input lambda is                     ....     0.011275
   iter:   5  x=   -0.012335  g=   13.695978 f(x)=     0.075265
   iter:  10  x=   -0.015475  g=    5.418389 f(x)=     0.000000
The output lambda is                    ....    -0.015475 (10 iterations)
The final length of the internal step   ....  0.300000000
Converting the step to Cartesian space:
 Initial RMS(Int)=    0.0670820393
Transforming coordinates:
 Iter   0:  RMS(Cart)=    0.0554400232 RMS(Int)=    0.0659096239
 Iter   5:  RMS(Cart)=    0.0000001788 RMS(Int)=    0.0000001848
done
Storing new coordinates                 .... done
The predicted energy change is          ....    -0.002435694
Previously predicted energy change      ....    -0.001843904
Actually observed energy change         ....    -0.002056485
Ratio of predicted to observed change   ....     1.115288745
New trust radius                        ....     0.450000000

                                .--------------------.
          ----------------------|Geometry convergence|-------------------------
          Item                value                   Tolerance       Converged
          ---------------------------------------------------------------------
          Energy change      -0.0020564851            0.0000050000      NO
          RMS gradient        0.0037609710            0.0001000000      NO
          MAX gradient        0.0097826708            0.0003000000      NO
          RMS step            0.0670820393            0.0020000000      NO
          MAX step            0.1511751230            0.0040000000      NO
          ........................................................
          Max(Bonds)      0.0468      Max(Angles)    2.18
          Max(Dihed)        8.66      Max(Improp)    0.00
          ---------------------------------------------------------------------

The optimization has not yet converged - more geometry cycles are needed


    ---------------------------------------------------------------------------
                         Redundant Internal Coordinates
                            (Angstroem and degrees)

        Definition                    Value    dE/dq     Step     New-Value
    ----------------------------------------------------------------------------
     1. B(C   1,O   0)                1.2524  0.004701 -0.0059    1.2465   
     2. B(O   2,C   1)                1.2522  0.005175 -0.0066    1.2456   
     3. B(C   3,C   1)                1.5415 -0.009783  0.0468    1.5883   
     4. B(H   4,C   3)                1.1073 -0.000150  0.0152    1.1225   
     5. B(H   5,C   3)                1.1049 -0.000899  0.0176    1.1225   
     6. B(H   6,C   3)                1.1040 -0.000806  0.0180    1.1219   
[...]
Old exchange energy                            :     -7.024734188 Eh
New exchange energy                            :     -7.024752879 Eh
Exchange energy change after final integration :     -0.000018692 Eh
Total energy after final integration           :   -228.074010304 Eh
             **** ENERGY FILE WAS UPDATED (CS_PdOAc_005_opt_01.en.tmp) ****

----------------
TOTAL SCF ENERGY
----------------

Total Energy       :       -228.07401030438348 Eh           -6206.20934 eV

Components:
Nuclear Repulsion  :        111.83815343443953 Eh            3043.27087 eV
Electronic Energy  :       -339.91214504686837 Eh           -9249.47970 eV
One Electron Energy:       -541.40011492483131 Eh          -14732.24610 eV
Two Electron Energy:        201.48796987796294 Eh            5482.76640 eV

Virial components:
Potential Energy   :       -454.52956887879907 Eh          -12368.37837 eV
Kinetic Energy     :        226.45555857441559 Eh            6162.16903 eV
Virial Ratio       :          2.00714688453733

DFT components:
N(Alpha)           :       16.000002873909 electrons
N(Beta)            :       16.000002873909 electrons
N(Total)           :       32.000005747818 electrons
E(X)               :      -21.053443816404 Eh       
E(C)               :       -1.072742991945 Eh       
E(XC)              :      -22.126186808349 Eh       

---------------
SCF CONVERGENCE
---------------

  Last Energy change         ...    1.9721e-09  Tolerance :   1.0000e-08
  Last MAX-Density change    ...    1.2995e-05  Tolerance :   1.0000e-07
  Last RMS-Density change    ...    1.3908e-06  Tolerance :   5.0000e-09
  Last DIIS Error            ...    4.3229e-04  Tolerance :   5.0000e-07
  Last Orbital Gradient      ...    4.6579e-06  Tolerance :   1.0000e-05
  Last Orbital Rotation      ...    1.1477e-05  Tolerance :   1.0000e-05


----------------
ORBITAL ENERGIES
----------------

  NO   OCC          E(Eh)            E(eV) 
   0   2.0000     -18.910729      -514.5871 
   1   2.0000     -18.908196      -514.5182 
   2   2.0000     -10.084384      -274.4101 
   3   2.0000     -10.025594      -272.8103 
   4   2.0000      -0.804408       -21.8891 
   5   2.0000      -0.716185       -19.4884 
   6   2.0000      -0.522611       -14.2210 
   7   2.0000      -0.286550        -7.7974 
   8   2.0000      -0.241117        -6.5611 
   9   2.0000      -0.231326        -6.2947 
  10   2.0000      -0.209654        -5.7050 
  11   2.0000      -0.171917        -4.6781 
  12   2.0000      -0.152726        -4.1559 
  13   2.0000      -0.027070        -0.7366 
  14   2.0000      -0.015659        -0.4261 
  15   2.0000      -0.010398        -0.2829 
  16   0.0000       0.253489         6.8978 
  17   0.0000       0.279488         7.6053 
  18   0.0000       0.313859         8.5405 
  19   0.0000       0.347088         9.4448 
  20   0.0000       0.432338        11.7645 
  21   0.0000       0.500281        13.6133 
  22   0.0000       0.584033        15.8923 
  23   0.0000       0.666865        18.1463 
  24   0.0000       0.743616        20.2348 
  25   0.0000       0.763368        20.7723 
  26   0.0000       0.779071        21.1996 
*Only the first 10 virtual orbitals were printed.

                    ********************************
                    * MULLIKEN POPULATION ANALYSIS *
                    ********************************

-----------------------
MULLIKEN ATOMIC CHARGES
-----------------------
   0 O :   -0.464402
   1 C :    0.116975
   2 O :   -0.453361
   3 C :   -0.388668
   4 H :    0.068106
   5 H :    0.066037
   6 H :    0.055313
Sum of atomic charges:   -1.0000000

--------------------------------
MULLIKEN REDUCED ORBITAL CHARGES
--------------------------------
  0 O s       :     3.750729  s :     3.750729
      pz      :     1.645876  p :     4.698889
      px      :     1.552315
      py      :     1.500699
      dz2     :     0.001892  d :     0.014784
      dxz     :     0.002405
      dyz     :     0.002050
      dx2y2   :     0.003438
      dxy     :     0.004998

  1 C s       :     3.036763  s :     3.036763
      pz      :     0.895235  p :     2.698287
      px      :     0.902154
      py      :     0.900898
      dz2     :     0.016787  d :     0.147975
      dxz     :     0.033454
      dyz     :     0.018720
      dx2y2   :     0.040331
      dxy     :     0.038684

  2 O s       :     3.745877  s :     3.745877
      pz      :     1.612043  p :     4.692666
      px      :     1.379931
      py      :     1.700692
      dz2     :     0.002014  d :     0.014818
      dxz     :     0.004403
      dyz     :     0.000626
      dx2y2   :     0.004617
      dxy     :     0.003159

  3 C s       :     3.154158  s :     3.154158
      pz      :     1.096290  p :     3.205552
      px      :     1.040906
      py      :     1.068355
      dz2     :     0.006788  d :     0.028957
      dxz     :     0.003212
      dyz     :     0.006635
      dx2y2   :     0.002748
      dxy     :     0.009574

  4 H s       :     0.931894  s :     0.931894

  5 H s       :     0.933963  s :     0.933963

  6 H s       :     0.944687  s :     0.944687



                     *******************************
                     * LOEWDIN POPULATION ANALYSIS *
                     *******************************

----------------------
LOEWDIN ATOMIC CHARGES
----------------------
   0 O :   -0.404917
   1 C :   -0.059510
   2 O :   -0.395176
   3 C :   -0.418826
   4 H :    0.097201
   5 H :    0.095401
   6 H :    0.085826

-------------------------------
LOEWDIN REDUCED ORBITAL CHARGES
-------------------------------
  0 O s       :     3.571116  s :     3.571116
      pz      :     1.647329  p :     4.807846
      px      :     1.607566
      py      :     1.552951
      dz2     :     0.003406  d :     0.025955
      dxz     :     0.003726
      dyz     :     0.003518
      dx2y2   :     0.004835
      dxy     :     0.010471

  1 C s       :     2.859380  s :     2.859380
      pz      :     0.910745  p :     2.861145
      px      :     1.010886
      py      :     0.939514
      dz2     :     0.038854  d :     0.338984
      dxz     :     0.072690
      dyz     :     0.042558
      dx2y2   :     0.092655
      dxy     :     0.092228

  2 O s       :     3.569869  s :     3.569869
      pz      :     1.621766  p :     4.799320
      px      :     1.479496
      py      :     1.698057
      dz2     :     0.003187  d :     0.025987
      dxz     :     0.008002
      dyz     :     0.000853
      dx2y2   :     0.009306
      dxy     :     0.004639

  3 C s       :     3.008805  s :     3.008805
      pz      :     1.126241  p :     3.343338
      px      :     1.105379
      py      :     1.111718
      dz2     :     0.014845  d :     0.066683
      dxz     :     0.007254
      dyz     :     0.016863
      dx2y2   :     0.005905
      dxy     :     0.021816

  4 H s       :     0.902799  s :     0.902799

  5 H s       :     0.904599  s :     0.904599

  6 H s       :     0.914174  s :     0.914174



                      *****************************
                      * MAYER POPULATION ANALYSIS *
                      *****************************

  NA   - Mulliken gross atomic population
  ZA   - Total nuclear charge
  QA   - Mulliken gross atomic charge
  VA   - Mayer's total valence
  BVA  - Mayer's bonded valence
  FA   - Mayer's free valence

  ATOM       NA         ZA         QA         VA         BVA        FA
  0 O      8.4644     8.0000    -0.4644     1.9640     1.9640    -0.0000
  1 C      5.8830     6.0000     0.1170     4.5997     4.5997    -0.0000
  2 O      8.4534     8.0000    -0.4534     2.0051     2.0051    -0.0000
  3 C      6.3887     6.0000    -0.3887     3.7487     3.7487    -0.0000
  4 H      0.9319     1.0000     0.0681     0.9621     0.9621    -0.0000
  5 H      0.9340     1.0000     0.0660     0.9656     0.9656    -0.0000
  6 H      0.9447     1.0000     0.0553     0.9792     0.9792     0.0000

  Mayer bond orders larger than 0.100000
B(  0-O ,  1-C ) :   1.8187 B(  0-O ,  2-O ) :   0.1197 B(  1-C ,  2-O ) :   1.8538 
B(  1-C ,  3-C ) :   0.9292 B(  3-C ,  4-H ) :   0.9577 B(  3-C ,  5-H ) :   0.9574 
B(  3-C ,  6-H ) :   0.9545 

-------
TIMINGS
-------

Total SCF time: 0 days 0 hours 0 min 8 sec 

Total time                  ....       8.182 sec
Sum of individual times     ....       7.771 sec  ( 95.0%)

SCF preparation             ....       1.689 sec  ( 20.6%)
Fock matrix formation       ....       4.631 sec  ( 56.6%)
  Startup                   ....       0.294 sec  (  6.3% of F)
  Split-RI-J                ....       0.442 sec  (  9.5% of F)
  Chain of spheres X        ....       2.806 sec  ( 60.6% of F)
  XC integration            ....       0.648 sec  ( 14.0% of F)
    XC Preparation          ....       0.000 sec  (  0.0% of XC)
    Basis function eval.    ....       0.084 sec  ( 13.0% of XC)
    Density eval.           ....       0.031 sec  (  4.8% of XC)
    XC-Functional eval.     ....       0.035 sec  (  5.4% of XC)
    XC-Potential eval.      ....       0.029 sec  (  4.5% of XC)
Diagonalization             ....       0.000 sec  (  0.0%)
Density matrix formation    ....       0.377 sec  (  4.6%)
Total Energy calculation    ....       0.202 sec  (  2.5%)
Population analysis         ....       0.296 sec  (  3.6%)
Orbital Transformation      ....       0.078 sec  (  1.0%)
Orbital Orthonormalization  ....       0.000 sec  (  0.0%)
DIIS solution               ....       0.144 sec  (  1.8%)
SOSCF solution              ....       0.355 sec  (  4.3%)
Finished LeanSCF after   8.4 sec

Maximum memory used throughout the entire LEANSCF-calculation: 8.9 MB


-------------------------------------------------------------------------------
                          DFT DISPERSION CORRECTION                            
                                                                               
                              DFTD3 V3.1  Rev 1                                
                          USING Becke-Johnson damping                          
-------------------------------------------------------------------------------
The PBE0 functional is recognized
Active option DFTDOPT                   ...         4   

molecular C6(AA) [au] = 469.208565 


            DFT-D V3
 parameters
 s6 scaling factor         :     1.0000 
 a1 scaling factor         :     0.4145 
 s8 scaling factor         :     1.2177 
 a2 scaling factor         :     4.8593 
 ad hoc parameters k1-k3   :    16.0000     1.3333    -4.0000 

 Edisp/kcal,au: -1.890380889215  -0.003012513381 
 E6   /kcal   :  -1.214579675 
 E8   /kcal   :  -0.675801215 
 % E8         :  35.749473472 

-------------------------   ----------------
Dispersion correction           -0.003012513
-------------------------   ----------------


-------------------------   --------------------
FINAL SINGLE POINT ENERGY      -228.077022817765
-------------------------   --------------------

                                *** OPTIMIZATION RUN DONE ***



           ************************************************************
           *        Program running with 4 parallel MPI-processes     *
           *              working on a common directory               *
           ************************************************************

------------------------------------------------------------------------------
                              ORCA PROPERTY CALCULATIONS
------------------------------------------------------------------------------

GBWName                                 ... CS_PdOAc_005_opt_01.gbw
Number of atoms                         ...      7
Number of basis functions               ...     62
Max core memory                         ...   3500 MB

Electric properties:
Dipole moment                           ... YES
Quadrupole moment                       ...  NO
Static polarizability (Dipole/Dipole)   ...  NO
Static polarizability (Dipole/Quad.)    ...  NO
Static polarizability (Quad./Quad.)     ...  NO
Static polarizability (Velocity)        ...  NO

Atomic electric properties:
Dipole moment                           ...  NO
Quadrupole moment                       ...  NO
Static polarizability                   ...  NO

Choice of electric origin               ... Center of mass
Position of electric origin             ...     1.642336    -1.537230     0.946322

General magnetic properties:
Magnetizability                         ...  NO

EPR properties:
g-Tensor (aka g-matrix)                 ...  NO
Zero-Field splitting spin-orbit         ...  NO
Zero-field splitting spin-spin          ...  NO
Hyperfine couplings                     ...  NO (   0 nuclei)
Quadrupole couplings                    ...  NO (   0 nuclei)
Contact density                         ...  NO (   0 nuclei)

NMR properties:
Chemical shifts                         ...  NO (   0 nuclei)
Spin-rotation constants                 ...  NO (   0 nuclei)
Spin-spin couplings                     ...  NO (   0 nuclei,    0 pairs)

Choice of magnetic origin               ... GIAO
Position of magnetic origin             ...     0.000000     0.000000     0.000000

Properties with geometric perturbations:
SCF Hessian                             ...  NO
IR spectrum                             ...  NO
VCD spectrum                            ...  NO
X-ray spectroscopy properties:
SCF XES/XAS/RIXS spectra                ...  NO


-------------
DIPOLE MOMENT
-------------

Method             : SCF
Type of density    : Electron Density
Multiplicity       :   1
Irrep              :   0
Energy             :  -228.0740103043834779 Eh
Relativity type    : 
Basis              : AO
                                X                 Y                 Z
Electronic contribution:      1.198305259       2.640177940      -2.845461376
Nuclear contribution   :     -1.505608059      -3.323413584       3.587294834
                        -----------------------------------------
Total Dipole Moment    :     -0.307302800      -0.683235644       0.741833459
                        -----------------------------------------
Magnitude (a.u.)       :      1.054306804
Magnitude (Debye)      :      2.679834926



--------------------
Rotational spectrum 
--------------------
 
Rotational constants in cm-1:             0.383304             0.332506             0.184215 
Rotational constants in MHz :         11491.168183          9968.291451          5522.636795 

Dipole components along the rotational axes: 
x,y,z [a.u.] :    -1.052250     0.065464     0.006919 
x,y,z [Debye]:    -2.674606     0.166396     0.017586 

 

Dipole moment calculation done in   0.1 sec 

Maximum memory used throughout the entire PROP-calculation: 5.5 MB

--------------------------------
SUGGESTED CITATIONS FOR THIS RUN
--------------------------------

Below you find a list of papers that are relevant to this ORCA run
We neither can nor want to force you to cite these papers, but we appreciate if you do
You receive ORCA, which is the product of decades of hard work by many enthusiastic individuals, for free
The only thing we kindly ask in return is that you cite our papers,
We deeply appreciate it, if you show your appreciation for ORCA by not just citing the generic ORCA reference.

Please note that relegating all ORCA citations to the supporting information does *not* help us.
SI sections are not indexed - citations you put there will not count into any citation statistics
But we need these citations in order to attract the funding resources that allow us to do what we are doing

Therefore, if you are a happy ORCA user, please consider citing a few of the papers listed below in the main body of your paper

In addition to the list printed below, the program has created the file CS_PdOAc_005_opt_01.bibtex that contains the list in bibtex format
You can import this file easily into all common literature databanks and citation aid programs


List of essential papers. We consider these as the minimum necessary citations

  1. Neese,F.
     Software update: the ORCA program system, version 5.0
     WIRES Comput. Molec. Sci., 2022 12(1)e1606
     doi.org/10.1002/wcms.1606

List of papers to cite with high priority. The work reported in these papers was absolutely
necessary for this run to complete.
Our perspective: the developers of density functionals and basis sets usually get cited in chemistry papers
Good! But without the algorithms to do something with them, the functionals or basis sets would not do anything.
Hence, in our opinion, the algorithm design and method developments papers are equally worthy of getting cited

  1. Neese,F.
     An improvement of the resolution of the identity approximation for the formation of the Coulomb matrix
     J. Comp. Chem., 2003 24(14)1740-1747
     doi.org/10.1002/jcc.10318
  2. Neese,F.; Wennmohs,F.; Hansen,A.; Becker,U.
     Efficient, approximate and parallel Hartree-Fock and hybrid DFT calculations. A 'chain-of-spheres' algorithm for the Hartree-Fock exchange
     Chem. Phys., 2009 356(1-3)98-109
     doi.org/10.1016/j.chemphys.2008.10.036
  3. Helmich-Paris,B.; de Souza,B.; Neese,F.; Izsák,R.
     An improved chain of spheres for exchange algorithm
     J. Chem. Phys., 2021 155 104109
     doi.org/doi: 10.1063/5.0058766.
  4. Neese,F.
     The SHARK Integral Generation and Digestion System
     J. Comp. Chem., 2022  1-16
     doi.org/10.1002/jcc.26942
  5. Grimme,S.; Antony,J.; Ehrlich,S.; Krieg,H.
     A consistent and accurate ab initio parametrization of density functional dispersion correction (DFT-D) for the 94 elements H-Pu
     J. Chem. Phys., 2010 132 154104-XXXX
     doi.org/10.1063/1.3382344
  6. Grimme,S.; Ehrlich,S.; Goerigk,L.
     Effect of the damping function in dispersion corrected density functional theory
     J. Comput. Chem., 2011 32(7)1456-1465
     doi.org/10.1002/jcc.21759

List of suggested additional citations. These are papers that are important in the 'surrounding' of 
of this run, or papers that preceded the highly important papers. If you like your results we are grateful for a citation.

  1. Izsak,R.; Neese,F.
     An overlap fitted chain of spheres exchange method
     J. Chem. Phys., 2011 135 144105
     doi.org/10.1063/1.3646921
  2. Izsak,R.; Hansen,A.; Neese,F.
     The resolution of identity and chain of spheres approximations for the LPNO-CCSD singles Fock term
     Molec. Phys., 2012 110 2413-2417
     doi.org/10.1080/00268976.2012.687466
  3. Neese,F.
     The ORCA program system
     WIRES Comput. Molec. Sci., 2012 2(1)73-78
     doi.org/10.1002/wcms.81
  4. Izsak,R.; Neese,F.; Klopper,W.
     Robust fitting techniques in the chain of spheres approximation to the Fock exchange: The role of the complementary space
     J. Chem. Phys., 2013 139 
     doi.org/10.1063/1.4819264
  5. Neese,F.
     Software update: the ORCA program system, version 4.0
     WIRES Comput. Molec. Sci., 2018 8(1)1-6
     doi.org/10.1002/wcms.1327
  6. Neese,F.; Wennmohs,F.; Becker,U.; Riplinger,C.
     The ORCA quantum chemistry program package
     J. Chem. Phys., 2020 152 Art. No. L224108
     doi.org/10.1063/5.0004608

List of optional additional citations

  1. Neese,F.
     Approximate second-order SCF convergence for spin unrestricted wavefunctions
     Chem. Phys. Lett., 2000 325(1-3)93-98
     doi.org/10.1016/s0009-2614(00)00662-x

Timings for individual modules:

Sum of individual times          ...      498.938 sec (=   8.316 min)
Startup calculation              ...       64.551 sec (=   1.076 min)  12.9 %
SCF iterations                   ...      363.181 sec (=   6.053 min)  72.8 %
Property calculations            ...        3.801 sec (=   0.063 min)   0.8 %
SCF Gradient evaluation          ...       66.461 sec (=   1.108 min)  13.3 %
Geometry relaxation              ...        0.944 sec (=   0.016 min)   0.2 %
                             ****ORCA TERMINATED NORMALLY****
TOTAL RUN TIME: 0 days 0 hours 9 minutes 27 seconds 744 msec
