
                                 *****************
                                 * O   R   C   A *
                                 *****************

                                            #,                                       
                                            ###                                      
                                            ####                                     
                                            #####                                    
                                            ######                                   
                                           ########,                                 
                                     ,,################,,,,,                         
                               ,,#################################,,                 
                          ,,##########################################,,             
                       ,#########################################, ''#####,          
                    ,#############################################,,   '####,        
                  ,##################################################,,,,####,       
                ,###########''''           ''''###############################       
              ,#####''   ,,,,##########,,,,          '''####'''          '####       
            ,##' ,,,,###########################,,,                        '##       
           ' ,,###''''                  '''############,,,                           
         ,,##''                                '''############,,,,        ,,,,,,###''
      ,#''                                            '''#######################'''  
     '                                                          ''''####''''         
             ,#######,   #######,   ,#######,      ##                                
            ,#'     '#,  ##    ##  ,#'     '#,    #''#        ,####,   ,####,        
            ##       ##  ##   ,#'  ##            #'  '#       #'       #'  '#        
            ##       ##  #######   ##           ,######,      #####,   #    #        
            '#,     ,#'  ##    ##  '#,     ,#' ,#      #,     #,   #   #,  ,#        
             '#######'   ##     ##  '#######'  #'      '#     '####' # '####'        



                #########################################################
                #                        -***-                          #
                #          Department of theory and spectroscopy        #
                #                                                       #
                #                      Frank Neese                      #
                #                                                       #
                #     Directorship, Architecture, Infrastructure        #
                #                    SHARK, DRIVERS                     #
                #        Core code/Algorithms in most modules           #
                #                                                       #
                #        Max Planck Institute fuer Kohlenforschung      #
                #                Kaiser Wilhelm Platz 1                 #
                #                 D-45470 Muelheim/Ruhr                 #
                #                      Germany                          #
                #                                                       #
                #                  All rights reserved                  #
                #                        -***-                          #
                #########################################################


                         Program Version 6.0.0  -   RELEASE  -


 With contributions from (in alphabetic order):
   Daniel Aravena         : Magnetic Suceptibility
   Michael Atanasov       : Ab Initio Ligand Field Theory (pilot matlab implementation)
   Alexander A. Auer      : GIAO ZORA, VPT2 properties, NMR spectrum
   Ute Becker             : All parallelization in ORCA, NUMFREQ, NUMCALC
   Giovanni Bistoni       : ED, misc. LED, open-shell LED, HFLD
   Martin Brehm           : Molecular dynamics
   Dmytro Bykov           : pre 5.0 version of the SCF Hessian
   Marcos Casanova-Páez   : Triplet and SCS-CIS(D). UHF-(DLPNO)-IP/EA/STEOM-CCSD. UHF-CVS-IP/STEOM-CCSD
   Vijay G. Chilkuri      : MRCI spin determinant printing, contributions to CSF-ICE
   Pauline Colinet        : FMM embedding
   Dipayan Datta          : RHF DLPNO-CCSD density
   Achintya Kumar Dutta   : EOM-CC, STEOM-CC
   Nicolas Foglia         : Exact transition moments, OPA infrastructure, MCD improvements
   Dmitry Ganyushin       : Spin-Orbit,Spin-Spin,Magnetic field MRCI
   Miquel Garcia          : C-PCM and meta-GGA Hessian, CCSD/C-PCM, Gaussian charge scheme
   Tiago L. C. Gouveia    : GS-ROHF, GS-ROCIS
   Yang Guo               : DLPNO-NEVPT2, F12-NEVPT2, CIM, IAO-localization
   Andreas Hansen         : Spin unrestricted coupled pair/coupled cluster methods
   Ingolf Harden          : AUTO-CI MPn and infrastructure 
   Benjamin Helmich-Paris : MC-RPA, TRAH-(SCF,CASSCF), AVAS, COSX integrals, SCF dyn. polar.
   Lee Huntington         : MR-EOM, pCC
   Robert Izsak           : Overlap fitted RIJCOSX, COSX-SCS-MP3, EOM
   Riya Kayal             : Wick's Theorem for AUTO-CI, AUTO-CI UHF-CCSDT
   Emily Kempfer          : AUTO-CI, RHF CISDT and CCSDT
   Christian Kollmar      : KDIIS, OOCD, Brueckner-CCSD(T), CCSD density, CASPT2, CASPT2-K, improved NEVPT2
   Axel Koslowski         : Symmetry handling
   Simone Kossmann        : Meta GGA functionals, TD-DFT gradient, OOMP2, (MP2 Hessian; deprecated post 5.0)
   Lucas Lang             : DCDCAS
   Marvin Lechner         : AUTO-CI (C++ implementation), FIC-MRCC
   Spencer Leger          : CASSCF response
   Dagmar Lenk            : GEPOL surface, SMD, ORCA-2-JSON
   Dimitrios Liakos       : Extrapolation schemes; Compound Job, initial MDCI parallelization
   Dimitrios Manganas     : Further ROCIS development; embedding schemes. LFT, Crystal Embedding
   Dimitrios Pantazis     : SARC Basis sets
   Anastasios Papadopoulos: AUTO-CI, single reference methods and gradients
   Taras Petrenko         : pre 6.0 DFT Hessian and TD-DFT gradient, (ASA, deprecated), ECA, 1-Electron XAS/XES, NRVS
   Peter Pinski           : DLPNO-MP2, DLPNO-MP2 Gradient
   Christoph Reimann      : Effective Core Potentials
   Marius Retegan         : Local ZFS, SOC
   Christoph Riplinger    : Optimizer, TS searches, QM/MM, DLPNO-CCSD(T), (RO)-DLPNO pert. Triples
   Michael Roemelt        : Original ROCIS implementation
   Masaaki Saitow         : Open-shell DLPNO-CCSD energy and density
   Barbara Sandhoefer     : DKH picture change effects
   Kantharuban Sivalingam : CASSCF convergence/infrastructure, NEVPT2 and variants, FIC-MRCI
   Bernardo de Souza      : ESD, SOC TD-DFT
   Georgi Stoychev        : AutoAux, RI-MP2 NMR, DLPNO-MP2 response, X2C
   Van Anh Tran           : RI-MP2 g-tensors
   Willem Van den Heuvel  : Paramagnetic NMR
   Zikuan Wang            : NOTCH, Electric field optimization 
   Frank Wennmohs         : Technical directorship and infrastructure
   Hang Xu                : AUTO-CI-Response properties 


 We gratefully acknowledge several colleagues who have allowed us to
 interface, adapt or use parts of their codes:
   Stefan Grimme, W. Hujo, H. Kruse, P. Pracht,  : VdW corrections, initial TS optimization,
                  C. Bannwarth, S. Ehlert,         DFT functionals, gCP, sTDA/sTD-DF
                  L. Wittmann, M. Mueller
   Ed Valeev, F. Pavosevic, A. Kumar             : LibInt (2-el integral package), F12 methods
   Garnet Chan, S. Sharma, J. Yang, R. Olivares  : DMRG
   Ulf Ekstrom                                   : XCFun DFT Library
   Mihaly Kallay                                 : mrcc  (arbitrary order and MRCC methods)
   Frank Weinhold                                : gennbo (NPA and NBO analysis)
   Simon Mueller                                 : openCOSMO-RS
   Christopher J. Cramer and Donald G. Truhlar   : smd solvation model
   Lars Goerigk                                  : TD-DFT with DH, B97 family of functionals
   V. Asgeirsson, H. Jonsson                     : NEB implementation
   FAccTs GmbH                                   : IRC, NEB, NEB-TS, DLPNO-Multilevel, CI-OPT
                                                   MM, QMMM, 2- and 3-layer-ONIOM, Crystal-QMMM,
                                                   LR-CPCM, SF, NACMEs, symmetry and pop. for TD-DFT,
                                                   nearIR, NL-DFT gradient (VV10), updates on ESD,
                                                   ML-optimized integration grids, MBIS, APM,
                                                   GOAT, DOCKER, SOLVATOR, interface openCOSMO-RS
   S Lehtola, MJT Oliveira, MAL Marques          : LibXC Library
   Liviu Ungur et al                             : ANISO software


 Your calculation uses the libint2 library for the computation of 2-el integrals
 For citations please refer to: http://libint.valeyev.net

 Your ORCA version has been built with support for libXC version: 6.2.2
 For citations please refer to: https://libxc.gitlab.io

 This ORCA versions uses:
   CBLAS   interface :  Fast vector & matrix operations
   LAPACKE interface :  Fast linear algebra routines
   SCALAPACK package :  Parallel linear algebra routines
   Shared memory     :  Shared parallel matrices
   BLAS/LAPACK       :  OpenBLAS 0.3.27  USE64BITINT DYNAMIC_ARCH NO_AFFINITY Sandybridge SINGLE_THREADED
        Core in use  :  Sandybridge
   Copyright (c) 2011-2014, The OpenBLAS Project


NOTE: MaxCore=3500 MB was set to SCF,MP2,MDCI,CIPSI,MRCI and CIS
      => If you want to overwrite this, your respective input block should be placed after the MaxCore statement
Your calculation utilizes the atom-pairwise dispersion correction
with the Becke-Johnson damping scheme (D3BJ)


Warning: RI is on but no J-basis has been assigned. Assigning Def2/J (nothing to worry about!)
================================================================================

cite the ECPs for Pd [Def2-ECP] as follows:
Ce-Yb(ecp-28): M. Dolg, H. Stoll, H.Preuss, J. Chem. Phys., 1989, 90, 1730-1734.
Y-Cd(ecp-28), Hf-Hg(ecp-46): D. Andrae,U. Haeussermann, M. Dolg, H. Stoll, H. Preuss, Theor. Chim. Acta, 1990, 77, 123-141.
In-Sb(ecp-28), Tl-Bi(ecp-46): B. Metz, H. Stoll, M. Dolg, J. Chem. Phys., 2000, 113, 2563-2569.
Te-Xe(ecp-28), Po-Rn(ecp-46): K. A. Peterson, D. Figgen, E. Goll, H. Stoll, M. Dolg, J. Chem. Phys., 2003, 119, 11113-11123.
Rb(ecp-28), Cs(ecp-46): T. Leininger, A. Nicklass, W. Kuechle, H. Stoll, M. Dolg, A. Bergner, Chem. Phys. Lett., 1996, 255, 274-280.
Sr(ecp-28), Ba(ecp-46): M. Kaupp, P. V. Schleyer, H. Stoll and H. Preuss, J. Chem. Phys., 1991, 94, 1360-1366.
La(ecp-46): M. Dolg, H. Stoll, A. Savin, H. Preuss, Theor. Chim. Acta, 1989, 75, 173-194.
Lu(ecp-28): X. Cao, M. Dolg, J. Chem. Phys., 2001, 115, 7348-7355.

ECP parameters for Pd [Def2-ECP] have been obtained from:
TURBOMOLE (7.0.2)

----- Orbital basis set information -----
Your calculation utilizes the basis: def2-TZVP
   F. Weigend and R. Ahlrichs, Phys. Chem. Chem. Phys. 7, 3297 (2005).

----- AuxJ basis set information -----
Your calculation utilizes the auxiliary basis: def2/J
   F. Weigend, Phys. Chem. Chem. Phys. 8, 1057 (2006).

================================================================================
                                        WARNINGS
                       Please study these warnings very carefully!
================================================================================

Using LibXC functional ID 497 : Re-regularized SCAN exchange by Furness et al
[ 1]  J. W. Furness, A. D. Kaplan, J. Ning, J. P. Perdew, and J. Sun.,  J. Phys. Chem. Lett. 11, 8208-8215 (2020)
[ 2]  J. W. Furness, A. D. Kaplan, J. Ning, J. P. Perdew, and J. Sun.,  J. Phys. Chem. Lett. 11, 9248-9248 (2020)
Using LibXC functional ID 498 : Re-regularized SCAN correlation by Furness et al
[ 1]  J. W. Furness, A. D. Kaplan, J. Ning, J. P. Perdew, and J. Sun.,  J. Phys. Chem. Lett. 11, 8208-8215 (2020)
[ 2]  J. W. Furness, A. D. Kaplan, J. Ning, J. P. Perdew, and J. Sun.,  J. Phys. Chem. Lett. 11, 9248-9248 (2020)
Using LibXC functional ID 497 : Re-regularized SCAN exchange by Furness et al
[ 1]  J. W. Furness, A. D. Kaplan, J. Ning, J. P. Perdew, and J. Sun.,  J. Phys. Chem. Lett. 11, 8208-8215 (2020)
[ 2]  J. W. Furness, A. D. Kaplan, J. Ning, J. P. Perdew, and J. Sun.,  J. Phys. Chem. Lett. 11, 9248-9248 (2020)
Using LibXC functional ID 498 : Re-regularized SCAN correlation by Furness et al
[ 1]  J. W. Furness, A. D. Kaplan, J. Ning, J. P. Perdew, and J. Sun.,  J. Phys. Chem. Lett. 11, 8208-8215 (2020)
[ 2]  J. W. Furness, A. D. Kaplan, J. Ning, J. P. Perdew, and J. Sun.,  J. Phys. Chem. Lett. 11, 9248-9248 (2020)

================================================================================
                                       INPUT FILE
================================================================================
NAME = CS_PdOAc_002_sp_02.inp
|  1> !r2SCANh def2-TZVP d3 TightSCF SlowConv RIJCOSX defgrid2
|  2> 
|  3> %pal
|  4> nprocs 16
|  5> end
|  6> 
|  7> %scf
|  8> MaxIter 1500
|  9> end
| 10> 
| 11> %maxcore 3500
| 12> 
| 13>  
| 14> 
| 15> * xyz 0 1
| 16>   Pd         -0.96155713297856      1.46825119028625     -0.13527296373080
| 17>   O          -0.74187794558493      1.18287061435267     -2.12305578859050
| 18>   O           1.45546578834347      0.69101813442753     -2.20351959336500
| 19>   C           0.32624937011772      0.89115554296676     -2.72156618361241
| 20>   C           0.23372492740678      0.73087975790385     -4.21510820689113
| 21>   H          -0.53878430173106      1.39938046890886     -4.62254668779545
| 22>   H           1.20976413262595      0.92400951017976     -4.68302116244606
| 23>   H          -0.06043777423073     -0.31040774281063     -4.43506637654638
| 24>   O          -1.04289807496586      3.51854309351393      0.04622241118279
| 25>   C          -1.22564132209613      3.39522180705469      1.29566373876984
| 26>   O          -1.28346245725946      2.21507530405670      1.75725333355886
| 27>   C          -1.32661357978533      4.58565843010107      2.18598649394381
| 28>   H          -1.82275121140900      5.41352372082763      1.65685931033598
| 29>   H          -0.30715170003296      4.91416286869020      2.45516990838206
| 30>   H          -1.86789694665148      4.32754366295921      3.10826985324034
| 31>   O           2.88275106171368      2.60996093426844     -0.06561645756303
| 32>   Pd          1.90586178931800      0.80204731962409     -0.23833293090210
| 33>   O           2.63734450670721      1.28153522323390      1.62546472316981
| 34>   C           3.06930521704641      2.38367256125759      1.16829667472386
| 35>   H           4.35993183781436      4.06235231225963      1.45847733953824
| 36>   H           2.95066748051037      3.97820123798582      2.56112518371947
| 37>   C           3.73042074007027      3.38378175287754      2.05293935602851
| 38>   H           4.32434754864880      2.87170678305794      2.82542533455215
| 39>   O           1.13237209121254     -1.04293754665840      0.02944012181449
| 40>   C          -0.08625837794638     -1.32847649317569      0.16225550773202
| 41>   O          -1.06005617226553     -0.53236468415262      0.12562364650755
| 42>   C          -0.41560269543157     -2.78465938740288      0.35152232534782
| 43>   H          -0.53496223405774     -3.24607369007396     -0.64440725084470
| 44>   H           0.40643468166696     -3.29693994446352      0.87239776872500
| 45>   H          -1.36122075577586     -2.89508396005644      0.90158258001495
| 46> *
| 47> 
| 48>                          ****END OF INPUT****
================================================================================

                       ****************************
                       * Single Point Calculation *
                       ****************************

---------------------------------
CARTESIAN COORDINATES (ANGSTROEM)
---------------------------------
  Pd    -0.961557    1.468251   -0.135273
  O     -0.741878    1.182871   -2.123056
  O      1.455466    0.691018   -2.203520
  C      0.326249    0.891156   -2.721566
  C      0.233725    0.730880   -4.215108
  H     -0.538784    1.399380   -4.622547
  H      1.209764    0.924010   -4.683021
  H     -0.060438   -0.310408   -4.435066
  O     -1.042898    3.518543    0.046222
  C     -1.225641    3.395222    1.295664
  O     -1.283462    2.215075    1.757253
  C     -1.326614    4.585658    2.185986
  H     -1.822751    5.413524    1.656859
  H     -0.307152    4.914163    2.455170
  H     -1.867897    4.327544    3.108270
  O      2.882751    2.609961   -0.065616
  Pd     1.905862    0.802047   -0.238333
  O      2.637345    1.281535    1.625465
  C      3.069305    2.383673    1.168297
  H      4.359932    4.062352    1.458477
  H      2.950667    3.978201    2.561125
  C      3.730421    3.383782    2.052939
  H      4.324348    2.871707    2.825425
  O      1.132372   -1.042938    0.029440
  C     -0.086258   -1.328476    0.162256
  O     -1.060056   -0.532365    0.125624
  C     -0.415603   -2.784659    0.351522
  H     -0.534962   -3.246074   -0.644407
  H      0.406435   -3.296940    0.872398
  H     -1.361221   -2.895084    0.901583

----------------------------
CARTESIAN COORDINATES (A.U.)
----------------------------
  NO LB      ZA    FRAG     MASS         X           Y           Z
   0 Pd   18.0000*   0   106.400   -1.817080    2.774593   -0.255629
   1 O     8.0000    0    15.999   -1.401946    2.235302   -4.011994
   2 O     8.0000    0    15.999    2.750432    1.305835   -4.164049
   3 C     6.0000    0    12.011    0.616522    1.684040   -5.143015
   4 C     6.0000    0    12.011    0.441676    1.381163   -7.965400
   5 H     1.0000    0     1.008   -1.018155    2.644446   -8.735347
   6 H     1.0000    0     1.008    2.286123    1.746125   -8.849627
   7 H     1.0000    0     1.008   -0.114211   -0.586586   -8.381061
   8 O     8.0000    0    15.999   -1.970792    6.649083    0.087348
   9 C     6.0000    0    12.011   -2.316126    6.416039    2.448450
  10 O     8.0000    0    15.999   -2.425393    4.185886    3.320728
  11 C     6.0000    0    12.011   -2.506936    8.665639    4.130916
  12 H     1.0000    0     1.008   -3.444501   10.230077    3.131010
  13 H     1.0000    0     1.008   -0.580433    9.286422    4.639599
  14 H     1.0000    0     1.008   -3.529814    8.177872    5.873779
  15 O     8.0000    0    15.999    5.447610    4.932111   -0.123997
  16 Pd   18.0000*   0   106.400    3.601557    1.515650   -0.450384
  17 O     8.0000    0    15.999    4.983859    2.421751    3.071683
  18 C     6.0000    0    12.011    5.800146    4.504488    2.207761
  19 H     1.0000    0     1.008    8.239077    7.676733    2.756123
  20 H     1.0000    0     1.008    5.575953    7.517711    4.839825
  21 C     6.0000    0    12.011    7.049474    6.394421    3.879493
  22 H     1.0000    0     1.008    8.171833    5.426739    5.339280
  23 O     8.0000    0    15.999    2.139873   -1.970866    0.055634
  24 C     6.0000    0    12.011   -0.163005   -2.510457    0.306618
  25 O     8.0000    0    15.999   -2.003216   -1.006023    0.237394
  26 C     6.0000    0    12.011   -0.785375   -5.262244    0.664281
  27 H     1.0000    0     1.008   -1.010932   -6.134190   -1.217753
  28 H     1.0000    0     1.008    0.768050   -6.230314    1.648593
  29 H     1.0000    0     1.008   -2.572334   -5.470916    1.703744
* core charge reduced due to ECP

--------------------------------
INTERNAL COORDINATES (ANGSTROEM)
--------------------------------
 Pd     0   0   0     0.000000000000     0.00000000     0.00000000
 O      1   0   0     2.020143949648     0.00000000     0.00000000
 O      2   1   0     2.253156179878    99.90575967     0.00000000
 C      3   2   1     1.258394600733    26.47417421   181.39900009
 C      4   3   2     1.504964077670   116.53721311   181.66221405
 H      5   4   3     1.099849910415   110.24826859   210.28312924
 H      5   4   3     1.099497232973   110.42965520   333.36535048
 H      5   4   3     1.104170707172   108.33102477    92.06299309
 O      1   2   3     2.059915971199   103.39118262   103.21589233
 C      9   1   2     1.268742237473    89.75419203   177.58319434
 O     10   9   1     1.268524341992   117.08659981   358.97820937
 C     10   9   1     1.489969583144   121.36953276   177.18831355
 H     12  10   9     1.100676639861   110.13460682    34.48362872
 H     12  10   9     1.104390058380   108.70791665   276.30431358
 H     12  10   9     1.100098864238   110.29434111   157.28951040
 O      3   2   1     3.207820839560   106.23224488   321.47965385
 Pd     3   2   1     2.019193565754    99.83272386     0.68716380
 O     17   3   2     2.058814540184   166.68554388   244.65286762
 C     16   3   2     1.268286441882   127.38136666    88.34338742
 H     19  16   3     2.137261705756    94.63333081   170.00026517
 H     20  19  16     1.791351361500    64.63454679   125.74427216
 C     20  19  16     1.100057869065    40.82665050   160.10770694
 H     22  20  19     1.100774461768   110.94201592   122.29003547
 O     17   3   2     2.018404785381    89.62042276    79.60417312
 C     24  17   3     1.258663035557   126.32723548   278.69668038
 O     25  24  17     1.258339401729   127.06088536     1.68512487
 C     25  24  17     1.504911369201   116.40223126   180.05471664
 H     27  25  24     1.104094913903   108.33627674   272.39969278
 H     27  25  24     1.099767269018   110.28629346    30.72398246
 H     27  25  24     1.099524163472   110.38385774   153.80275068

---------------------------
INTERNAL COORDINATES (A.U.)
---------------------------
 Pd     0   0   0     0.000000000000     0.00000000     0.00000000
 O      1   0   0     3.817518815934     0.00000000     0.00000000
 O      2   1   0     4.257848116921    99.90575967     0.00000000
 C      3   2   1     2.378021163791    26.47417421   181.39900009
 C      4   3   2     2.843969948185   116.53721311   181.66221405
 H      5   4   3     2.078415119101   110.24826859   210.28312924
 H      5   4   3     2.077748655323   110.42965520   333.36535048
 H      5   4   3     2.086580241653   108.33102477    92.06299309
 O      1   2   3     3.892677044456   103.39118262   103.21589233
 C      9   1   2     2.397575363363    89.75419203   177.58319434
 O     10   9   1     2.397163600578   117.08659981   358.97820937
 C     10   9   1     2.815634460014   121.36953276   177.18831355
 H     12  10   9     2.079977411342   110.13460682    34.48362872
 H     12  10   9     2.086994755364   108.70791665   276.30431358
 H     12  10   9     2.078885573648   110.29434111   157.28951040
 O      3   2   1     6.061902873453   106.23224488   321.47965385
 Pd     3   2   1     3.815722850650    99.83272386     0.68716380
 O     17   3   2     3.890595641482   166.68554388   244.65286762
 C     16   3   2     2.396714034523   127.38136666    88.34338742
 H     19  16   3     4.038839300396    94.63333081   170.00026517
 H     20  19  16     3.385163482861    64.63454679   125.74427216
 C     20  19  16     2.078808103999    40.82665050   160.10770694
 H     22  20  19     2.080162267955   110.94201592   122.29003547
 O     17   3   2     3.814232271766    89.62042276    79.60417312
 C     24  17   3     2.378528432092   126.32723548   278.69668038
 O     25  24  17     2.377916852790   127.06088536     1.68512487
 C     25  24  17     2.843870343614   116.40223126   180.05471664
 H     27  25  24     2.086437013131   108.33627674   272.39969278
 H     27  25  24     2.078258949494   110.28629346    30.72398246
 H     27  25  24     2.077799546592   110.38385774   153.80275068

---------------------
BASIS SET INFORMATION
---------------------
There are 4 groups of distinct atoms

 Group   1 Type Pd  : 7s7p6d1f contracted to 6s4p3d1f pattern {211111/4111/411/1}
 Group   2 Type O   : 11s6p2d1f contracted to 5s3p2d1f pattern {62111/411/11/1}
 Group   3 Type C   : 11s6p2d1f contracted to 5s3p2d1f pattern {62111/411/11/1}
 Group   4 Type H   : 5s1p contracted to 3s1p pattern {311/1}

Atom   0Pd   basis set group =>   1
Atom   1O    basis set group =>   2
Atom   2O    basis set group =>   2
Atom   3C    basis set group =>   3
Atom   4C    basis set group =>   3
Atom   5H    basis set group =>   4
Atom   6H    basis set group =>   4
Atom   7H    basis set group =>   4
Atom   8O    basis set group =>   2
Atom   9C    basis set group =>   3
Atom  10O    basis set group =>   2
Atom  11C    basis set group =>   3
Atom  12H    basis set group =>   4
Atom  13H    basis set group =>   4
Atom  14H    basis set group =>   4
Atom  15O    basis set group =>   2
Atom  16Pd   basis set group =>   1
Atom  17O    basis set group =>   2
Atom  18C    basis set group =>   3
Atom  19H    basis set group =>   4
Atom  20H    basis set group =>   4
Atom  21C    basis set group =>   3
Atom  22H    basis set group =>   4
Atom  23O    basis set group =>   2
Atom  24C    basis set group =>   3
Atom  25O    basis set group =>   2
Atom  26C    basis set group =>   3
Atom  27H    basis set group =>   4
Atom  28H    basis set group =>   4
Atom  29H    basis set group =>   4
---------------------------------
AUXILIARY/J BASIS SET INFORMATION
---------------------------------
There are 4 groups of distinct atoms

 Group   1 Type Pd  : 11s5p5d3f3g contracted to 8s5p5d2f3g pattern {41111111/11111/11111/21/111}
 Group   2 Type O   : 12s5p4d2f1g contracted to 6s4p3d1f1g pattern {711111/2111/211/2/1}
 Group   3 Type C   : 12s5p4d2f1g contracted to 6s4p3d1f1g pattern {711111/2111/211/2/1}
 Group   4 Type H   : 5s2p1d contracted to 3s1p1d pattern {311/2/1}

Atom   0Pd   basis set group =>   1
Atom   1O    basis set group =>   2
Atom   2O    basis set group =>   2
Atom   3C    basis set group =>   3
Atom   4C    basis set group =>   3
Atom   5H    basis set group =>   4
Atom   6H    basis set group =>   4
Atom   7H    basis set group =>   4
Atom   8O    basis set group =>   2
Atom   9C    basis set group =>   3
Atom  10O    basis set group =>   2
Atom  11C    basis set group =>   3
Atom  12H    basis set group =>   4
Atom  13H    basis set group =>   4
Atom  14H    basis set group =>   4
Atom  15O    basis set group =>   2
Atom  16Pd   basis set group =>   1
Atom  17O    basis set group =>   2
Atom  18C    basis set group =>   3
Atom  19H    basis set group =>   4
Atom  20H    basis set group =>   4
Atom  21C    basis set group =>   3
Atom  22H    basis set group =>   4
Atom  23O    basis set group =>   2
Atom  24C    basis set group =>   3
Atom  25O    basis set group =>   2
Atom  26C    basis set group =>   3
Atom  27H    basis set group =>   4
Atom  28H    basis set group =>   4
Atom  29H    basis set group =>   4
-------------------------
ECP PARAMETER INFORMATION
-------------------------

 Group 1, Type Pd ECP Def2-ECP (replacing 28 core electrons, lmax=3)

Atom   0Pd   ECP group =>   1
Atom  16Pd   ECP group =>   1



           ************************************************************
           *        Program running with 16 parallel MPI-processes    *
           *              working on a common directory               *
           ************************************************************
------------------------------------------------------------------------------
                             ORCA STARTUP CALCULATIONS
                           -- RI-GTO INTEGRALS CHOSEN --
------------------------------------------------------------------------------
------------------------------------------------------------------------------
                   ___                                                        
                  /   \      - P O W E R E D   B Y -                         
                 /     \                                                     
                 |  |  |   _    _      __       _____    __    __             
                 |  |  |  | |  | |    /  \     |  _  \  |  |  /  |          
                  \  \/   | |  | |   /    \    | | | |  |  | /  /          
                 / \  \   | |__| |  /  /\  \   | |_| |  |  |/  /          
                |  |  |   |  __  | /  /__\  \  |    /   |      \           
                |  |  |   | |  | | |   __   |  |    \   |  |\   \          
                \     /   | |  | | |  |  |  |  | |\  \  |  | \   \       
                 \___/    |_|  |_| |__|  |__|  |_| \__\ |__|  \__/        
                                                                              
                      - O R C A' S   B I G   F R I E N D -                    
                                      &                                       
                       - I N T E G R A L  F E E D E R -                       
                                                                              
 v1 FN, 2020, v2 2021, v3 2022-2024                                           
------------------------------------------------------------------------------


----------------------
SHARK INTEGRAL PACKAGE
----------------------

Number of atoms                             ...     30
Number of basis functions                   ...    648
Number of shells                            ...    252
Maximum angular momentum                    ...      3
Integral batch strategy                     ... SHARK/LIBINT Hybrid
RI-J (if used) integral strategy            ... SPLIT-RIJ (Revised 2003 algorithm where possible)
Printlevel                                  ...      1
Contraction scheme used                     ... SEGMENTED contraction
Prescreening option                         ... SCHWARTZ
   Thresh                                   ... 2.500e-11
   Tcut                                     ... 2.500e-12
   Tpresel                                  ... 2.500e-12 
Coulomb Range Separation                    ... NOT USED
Exchange Range Separation                   ... NOT USED
Multipole approximations                    ... NOT USED
Finite Nucleus Model                        ... NOT USED
CABS basis                                  ... NOT available
Auxiliary Coulomb fitting basis             ... AVAILABLE
   # of basis functions in Aux-J            ...   1094
   # of shells in Aux-J                     ...    346
   Maximum angular momentum in Aux-J        ...      4
Auxiliary J/K fitting basis                 ... NOT available
Auxiliary Correlation fitting basis         ... NOT available
Auxiliary 'external' fitting basis          ... NOT available

Checking pre-screening integrals            ... done (  0.1 sec) Dimension = 252
Check shell pair data                       ... done (  0.1 sec)
Shell pair information
Shell pair cut-off parameter TPreSel        ...   2.5e-12
Total number of shell pairs                 ...     31878
Shell pairs after pre-screening             ...     22507
Total number of primitive shell pairs       ...     94809
Primitive shell pairs kept                  ...     44582
          la=0 lb=0:   5477 shell pairs
          la=1 lb=0:   6457 shell pairs
          la=1 lb=1:   1867 shell pairs
          la=2 lb=0:   3362 shell pairs
          la=2 lb=1:   1959 shell pairs
          la=2 lb=2:    557 shell pairs
          la=3 lb=0:   1394 shell pairs
          la=3 lb=1:    864 shell pairs
          la=3 lb=2:    467 shell pairs
          la=3 lb=3:    103 shell pairs

Calculating one electron integrals          ... done (  0.0 sec)
Calculating ECP integrals                   ... done (  2.4 sec)
Calculating RI/J V-Matrix + Cholesky decomp.... done (  0.1 sec)
Calculating Nuclear repulsion               ... done (  0.0 sec) ENN=   1909.308553152348 Eh

Diagonalization of the overlap matrix:
Smallest eigenvalue                        ... 2.305e-04
Time for diagonalization                   ...    0.144 sec
Threshold for overlap eigenvalues          ... 1.000e-07
Number of eigenvalues below threshold      ... 0
Time for construction of square roots      ...    0.085 sec
Total time needed                          ...    0.290 sec

-------------------
DFT GRID GENERATION
-------------------

General Integration Accuracy     IntAcc      ... 4.388
Radial Grid Type                 RadialGrid  ... OptM3 with GC (2021)
Angular Grid (max. ang.)         AngularGrid ... 4 (Lebedev-302)
Angular grid pruning method      GridPruning ... 4 (adaptive)
Weight generation scheme         WeightScheme... mBecke (2022)
Basis function cutoff            BFCut       ... 1.0000e-11
Integration weight cutoff        WCut        ... 1.0000e-14
Partially contracted basis set               ... off
Rotationally invariant grid construction     ... off
Angular grids for H and He will be reduced by one unit

Total number of grid points                  ...   155096
Total number of batches                      ...     2441
Average number of points per batch           ...       63
Average number of grid points per atom       ...     5170

--------------------
COSX GRID GENERATION
--------------------

GRIDX 1
-------
General Integration Accuracy     IntAcc      ... 3.816
Radial Grid Type                 RadialGrid  ... OptM3 with GC (2021)
Angular Grid (max. ang.)         AngularGrid ... 1 (Lebedev-50)
Angular grid pruning method      GridPruning ... 4 (adaptive)
Weight generation scheme         WeightScheme... mBecke (2022)
Basis function cutoff            BFCut       ... 1.0000e-11
Integration weight cutoff        WCut        ... 1.0000e-14
Partially contracted basis set               ... on
Rotationally invariant grid construction     ... off
Angular grids for H and He will be reduced by one unit

Total number of grid points                  ...    26751
Total number of batches                      ...      224
Average number of points per batch           ...      119
Average number of grid points per atom       ...      892
UseSFitting                                  ... on

GRIDX 2
-------
General Integration Accuracy     IntAcc      ... 4.020
Radial Grid Type                 RadialGrid  ... OptM3 with GC (2021)
Angular Grid (max. ang.)         AngularGrid ... 2 (Lebedev-110)
Angular grid pruning method      GridPruning ... 4 (adaptive)
Weight generation scheme         WeightScheme... mBecke (2022)
Basis function cutoff            BFCut       ... 1.0000e-11
Integration weight cutoff        WCut        ... 1.0000e-14
Partially contracted basis set               ... on
Rotationally invariant grid construction     ... off
Angular grids for H and He will be reduced by one unit

Total number of grid points                  ...    47311
Total number of batches                      ...      386
Average number of points per batch           ...      122
Average number of grid points per atom       ...     1577
UseSFitting                                  ... on

GRIDX 3
-------
General Integration Accuracy     IntAcc      ... 4.338
Radial Grid Type                 RadialGrid  ... OptM3 with GC (2021)
Angular Grid (max. ang.)         AngularGrid ... 3 (Lebedev-194)
Angular grid pruning method      GridPruning ... 4 (adaptive)
Weight generation scheme         WeightScheme... mBecke (2022)
Basis function cutoff            BFCut       ... 1.0000e-11
Integration weight cutoff        WCut        ... 1.0000e-14
Partially contracted basis set               ... on
Rotationally invariant grid construction     ... off
Angular grids for H and He will be reduced by one unit

Total number of grid points                  ...    92587
Total number of batches                      ...      741
Average number of points per batch           ...      124
Average number of grid points per atom       ...     3086
UseSFitting                                  ... on
Initializing property integral containers    ... done (  0.1 sec)

SHARK setup successfully completed in   8.5 seconds

Maximum memory used throughout the entire STARTUP-calculation: 56.8 MB


           ************************************************************
           *        Program running with 16 parallel MPI-processes    *
           *              working on a common directory               *
           ************************************************************
-------------------------------------------------------------------------------
                                 ORCA GUESS
                   Start orbitals & Density for SCF / CASSCF
-------------------------------------------------------------------------------

------------
SCF SETTINGS
------------
Hamiltonian:
 Density Functional     Method          .... DFT(GTOs)
  Functional kind                       .... Exchange
  Functional name                       .... Re-regularized SCAN exchange by Furness et al
  Functional family                     .... MGGA
  Functional refs                              
    [ 0] J. W. Furness, A. D. Kaplan, J. Ning, J. P. Perdew, and J. Sun.,  J. Phys. Chem. Lett. 11, 8208-8215 (2020), doi: 10.1021/acs.jpclett.0c02405
    [ 1] J. W. Furness, A. D. Kaplan, J. Ning, J. P. Perdew, and J. Sun.,  J. Phys. Chem. Lett. 11, 9248-9248 (2020), doi: 10.1021/acs.jpclett.0c03077
  Functional external parameters        .... 6
    Parameter  0 _c1        =  6.670000e-01 : c1 parameter        
    Parameter  1 _c2        =  8.000000e-01 : c2 parameter        
    Parameter  2 _d         =  1.240000e+00 : d parameter         
    Parameter  3 _k1        =  6.500000e-02 : k1 parameter        
    Parameter  4 _eta       =  1.000000e-03 : eta parameter       
    Parameter  5 _dp2       =  3.610000e-01 : dp2 parameter       
  Functional kind                       .... Correlation
  Functional name                       .... Re-regularized SCAN correlation by Furness et al
  Functional family                     .... MGGA
  Functional refs                              
    [ 0] J. W. Furness, A. D. Kaplan, J. Ning, J. P. Perdew, and J. Sun.,  J. Phys. Chem. Lett. 11, 8208-8215 (2020), doi: 10.1021/acs.jpclett.0c02405
    [ 1] J. W. Furness, A. D. Kaplan, J. Ning, J. P. Perdew, and J. Sun.,  J. Phys. Chem. Lett. 11, 9248-9248 (2020), doi: 10.1021/acs.jpclett.0c03077
  Functional external parameters        .... 1
    Parameter  0 _eta       =  1.000000e-03 : Regularization parameter
 Gradients option       PostSCFGGA      .... off
 Hybrid DFT is turned on
   Fraction HF Exchange ScalHFX         ....  0.100000
   Scaling of DF-GGA-X  ScalDFX         ....  0.900000
   Scaling of DF-GGA-C  ScalDFC         ....  1.000000
   Scaling of DF-LDA-C  ScalLDAC        ....  1.000000
   Perturbative correction              ....  0.000000
   NL short-range parameter             .... 11.900000
 RI-approximation to the Coulomb term is turned on
   Number of AuxJ basis functions       .... 1094
   RIJ-COSX (HFX calculated with COS-X)).... on


General Settings:
 Integral files         IntName         .... CS_PdOAc_002_sp_02
 Hartree-Fock type      HFTyp           .... RHF
 Total Charge           Charge          ....    0
 Multiplicity           Mult            ....    1
 Number of Electrons    NEL             ....  160
 Basis Dimension        Dim             ....  648
 Nuclear Repulsion      ENuc            ....   1909.3085531523 Eh

Convergence Acceleration:
 AO-DIIS                CNVDIIS         .... on
   Start iteration      DIISMaxIt       ....     0
   Startup error        DIISStart       ....  0.200000
   # of expansion vecs  DIISMaxEq       ....     5
   Bias factor          DIISBfac        ....   1.050
   Max. coefficient     DIISMaxC        ....  10.000
 MO-DIIS                CNVKDIIS        .... off
 Trust-Rad. Augm. Hess. CNVTRAH         .... auto
   Auto Start mean grad. ratio tolernc. ....  1.125000
   Auto Start start iteration           ....    50
   Auto Start num. interpolation iter.  ....    10
   Max. Number of Micro iterations      ....    24
   Max. Number of Macro iterations      .... Maxiter - #DIIS iter
   Number of Davidson start vectors     ....     2
   Converg. threshold    (grad. norm)   ....   1.000e-05
   Grad. Scal. Fac. for Micro threshold ....   0.100
   Minimum threshold for Micro iter.    ....   1.000e-02
   NR start threshold (gradient norm)   ....   1.000e-04
   Initial trust radius                 ....   0.400
   Minimum AH scaling param. (alpha)    ....   1.000
   Maximum AH scaling param. (alpha)    .... 1000.000
   Quad. conv. algorithm                .... NR
   White noise on init. David. guess    .... on
   Maximum white noise                  ....   0.010
   Pseudo random numbers                .... off
   Inactive MOs                         .... canonical
   Orbital update algorithm             .... Taylor
   Preconditioner                       .... Diag
   Full preconditioner red. dimension   ....   250
 SOSCF                  CNVSOSCF        .... on
   Start iteration      SOSCFMaxIt      ....   150
   Startup grad/error   SOSCFStart      ....  0.001000
   Hessian update       SOSCFHessUp     .... L-BFGS
 Level Shifting         CNVShift        .... on
   Level shift para.    LevelShift      ....    0.2500
   Turn off err/grad.   ShiftErr        ....    0.0000
 Zerner damping         CNVZerner       .... off
 Static damping         CNVDamp         .... on
   Fraction old density DampFac         ....    0.8500
   Max. Damping (<1)    DampMax         ....    0.9800
   Min. Damping (>=0)   DampMin         ....    0.0000
   Turn off err/grad.   DampErr         ....    0.0300

SCF Procedure:
 Maximum # iterations   MaxIter         ....  1500
 SCF integral mode      SCFMode         .... Direct
   Integral package                     .... SHARK and LIBINT hybrid scheme
 Reset frequency        DirectResetFreq ....    20
 Integral Threshold     Thresh          ....  2.500e-11 Eh
 Primitive CutOff       TCut            ....  2.500e-12 Eh

Convergence Tolerance:
 Convergence Check Mode ConvCheckMode   .... Total+1el-Energy
 Convergence forced     ConvForced      .... 0
 Energy Change          TolE            ....  1.000e-08 Eh
 1-El. energy change                    ....  1.000e-05 Eh
 Orbital Gradient       TolG            ....  1.000e-05
 Orbital Rotation angle TolX            ....  1.000e-05
 DIIS Error             TolErr          ....  5.000e-07

------------------------------
INITIAL GUESS: MODEL POTENTIAL
------------------------------
Loading Hartree-Fock densities                     ... done
Atomic calculation to generate a density for atom 0 (Pd with ECP)
  Multiplicity assumed   :    3
  Atomic configuration   : 1s2 2s2 2p6 3s2 3p6 4s2 3d10 4p6 5s2 4d8 
  Number of open shells  : 1
  Command: /opt/apps/software/ORCA/6.0.0-gompi-2023b/bin/orca CS_PdOAc_002_sp_02_atom46.inp "" > CS_PdOAc_002_sp_02_atom46.out
Returned from the atomic calculation with res=0
Calculating cut-offs                               ... done
Initializing the effective Hamiltonian             ... done
Setting up the integral package (SHARK)            ... done
Starting the Coulomb interaction                   ... done (   0.4 sec)
Making the grid                                    ... done (   0.5 sec)
Mapping shells                                     ... done
Starting the XC term evaluation                    ... done (   0.2 sec)
  promolecular density results
     # of electrons  =    215.982127907
     EX              =   -386.844708439
     EC              =     -9.070804980
     EX+EC           =   -395.915513420
Transforming the Hamiltonian                       ... done (   0.2 sec)
Diagonalizing the Hamiltonian                      ... done (   0.1 sec)
Back transforming the eigenvectors                 ... done (   0.1 sec)
Now organizing SCF variables                       ... done
                      ------------------
                      INITIAL GUESS DONE (  12.0 sec)
                      ------------------
             **** ENERGY FILE WAS UPDATED (CS_PdOAc_002_sp_02.en.tmp) ****
Finished Guess after  13.3 sec
Maximum memory used throughout the entire GUESS-calculation: 41.5 MB


           ************************************************************
           *        Program running with 16 parallel MPI-processes    *
           *              working on a common directory               *
           ************************************************************

-------------------------------------------------------------------------------------------
                                      ORCA LEAN-SCF
                              memory conserving SCF solver
-------------------------------------------------------------------------------------------

----------------------------------------D-I-I-S--------------------------------------------
Iteration    Energy (Eh)           Delta-E    RMSDP     MaxDP     DIISErr   Damp  Time(sec)
-------------------------------------------------------------------------------------------
               ***  Starting incremental Fock matrix formation  ***
    1    -1169.2111499889149400     0.00e+00  4.93e-04  2.32e-02  4.66e-01  0.850   8.4
    2    -1169.3762873523171493    -1.65e-01  4.74e-04  1.91e-02  3.93e-01  0.850   8.2
                               ***Turning on AO-DIIS***
    3    -1169.4783855944799598    -1.02e-01  2.68e-04  1.47e-02  3.32e-01  0.850   6.4
    4    -1169.5419386599753580    -6.36e-02  1.82e-04  1.17e-02  2.81e-01  0.850   6.2
    5    -1169.5872524877229353    -4.53e-02  1.37e-04  9.23e-03  2.38e-01  0.850   6.2
    6    -1169.6229658321897205    -3.57e-02  1.13e-04  7.54e-03  2.02e-01  0.850   6.2
    7    -1169.6524606218247300    -2.95e-02  9.76e-05  6.54e-03  1.72e-01  0.850   6.0
    8    -1169.6770731080553105    -2.46e-02  8.41e-05  6.04e-03  1.46e-01  0.850   6.0
    9    -1169.6973479945429517    -2.03e-02  7.13e-05  5.21e-03  1.24e-01  0.850   6.9
   10    -1169.7140506756620653    -1.67e-02  5.96e-05  4.25e-03  1.06e-01  0.850   6.8
   11    -1169.7278996641828144    -1.38e-02  5.00e-05  3.50e-03  8.96e-02  0.850   6.2
   12    -1169.7394470123042538    -1.15e-02  4.23e-05  2.99e-03  7.62e-02  0.850   5.8
   13    -1169.7491029103568962    -9.66e-03  3.59e-05  2.61e-03  6.48e-02  0.850   6.2
   14    -1169.7571915137266387    -8.09e-03  3.04e-05  2.23e-03  5.50e-02  0.850   6.3
   15    -1169.7639827590126060    -6.79e-03  2.56e-05  1.86e-03  4.67e-02  0.850   5.6
   16    -1169.7696984543511007    -5.72e-03  2.16e-05  1.56e-03  3.97e-02  0.850   5.9
   17    -1169.7745178019124523    -4.82e-03  1.83e-05  1.33e-03  3.37e-02  0.850   5.6
   18    -1169.7785864681552539    -4.07e-03  1.55e-05  1.14e-03  2.87e-02  0.850   5.5
   19    -1169.7820248092245947    -3.44e-03  8.74e-05  6.49e-03  2.44e-02  0.000   5.9
                              *** Initializing SOSCF ***
---------------------------------------S-O-S-C-F--------------------------------------
Iteration    Energy (Eh)           Delta-E    RMSDP     MaxDP     MaxGrad    Time(sec)
--------------------------------------------------------------------------------------
   20    -1169.8011924968911899    -1.92e-02  4.40e-06  2.20e-04  3.94e-04     7.0
               *** Restarting incremental Fock matrix formation ***
   21    -1169.8011870636903495     5.43e-06  3.96e-06  3.15e-04  7.35e-05     8.1
   22    -1169.8011864822922234     5.81e-07  2.61e-06  2.34e-04  1.94e-04     7.0
   23    -1169.8011872681438490    -7.86e-07  1.13e-06  1.12e-04  3.24e-05     5.4
   24    -1169.8011871861388045     8.20e-08  7.28e-07  5.65e-05  4.77e-05     5.4
   25    -1169.8011873005409598    -1.14e-07  1.08e-07  7.89e-06  1.84e-06     5.3
                  *** Gradient check signals convergence ***

               *****************************************************
               *                     SUCCESS                       *
               *           SCF CONVERGED AFTER  25 CYCLES          *
               *****************************************************

Recomputing exchange energy using gridx3       ... done (    7.981 sec)
Old exchange energy                            :    -13.524847188 Eh
New exchange energy                            :    -13.524846704 Eh
Exchange energy change after final integration :      0.000000484 Eh
Total energy after final integration           :  -1169.801186817 Eh
             **** ENERGY FILE WAS UPDATED (CS_PdOAc_002_sp_02.en.tmp) ****

----------------
TOTAL SCF ENERGY
----------------

Total Energy       :      -1169.80118681658541 Eh          -31831.90860 eV

Components:
Nuclear Repulsion  :       1909.30855315234817 Eh           51954.92707 eV
Electronic Energy  :      -3079.10974045288913 Eh          -83786.83568 eV
One Electron Energy:      -5507.49023975497948 Eh         -149866.42849 eV
Two Electron Energy:       2428.38049930209036 Eh           66079.59281 eV

Virial components:
Potential Energy   :      -2175.94239232529344 Eh          -59210.40269 eV
Kinetic Energy     :       1006.14120550870803 Eh           27378.49410 eV
Virial Ratio       :          2.16266104639371

DFT components:
N(Alpha)           :       80.000098311797 electrons
N(Beta)            :       80.000098311797 electrons
N(Total)           :      160.000196623595 electrons
E(X)               :     -122.700278360737 Eh       
E(C)               :       -5.577395652290 Eh       
E(XC)              :     -128.277674013027 Eh       

---------------
SCF CONVERGENCE
---------------

  Last Energy change         ...    1.1440e-07  Tolerance :   1.0000e-08
  Last MAX-Density change    ...    7.8876e-06  Tolerance :   1.0000e-07
  Last RMS-Density change    ...    1.0810e-07  Tolerance :   5.0000e-09
  Last DIIS Error            ...    3.9386e-04  Tolerance :   5.0000e-07
  Last Orbital Gradient      ...    1.8356e-06  Tolerance :   1.0000e-05
  Last Orbital Rotation      ...    4.6224e-06  Tolerance :   1.0000e-05


----------------
ORBITAL ENERGIES
----------------

  NO   OCC          E(Eh)            E(eV) 
   0   2.0000     -19.139735      -520.8187 
   1   2.0000     -19.139515      -520.8127 
   2   2.0000     -19.139178      -520.8035 
   3   2.0000     -19.139044      -520.7999 
   4   2.0000     -19.137153      -520.7484 
   5   2.0000     -19.137124      -520.7476 
   6   2.0000     -19.137032      -520.7451 
   7   2.0000     -19.136840      -520.7399 
   8   2.0000     -10.294357      -280.1237 
   9   2.0000     -10.294227      -280.1202 
  10   2.0000     -10.292144      -280.0635 
  11   2.0000     -10.292092      -280.0621 
  12   2.0000     -10.177247      -276.9370 
  13   2.0000     -10.177153      -276.9344 
  14   2.0000     -10.167530      -276.6725 
  15   2.0000     -10.167504      -276.6718 
  16   2.0000      -3.508871       -95.4812 
  17   2.0000      -3.508754       -95.4781 
  18   2.0000      -2.193887       -59.6987 
  19   2.0000      -2.193574       -59.6902 
  20   2.0000      -2.188365       -59.5484 
  21   2.0000      -2.188224       -59.5446 
  22   2.0000      -2.151168       -58.5363 
  23   2.0000      -2.149554       -58.4923 
  24   2.0000      -1.114906       -30.3381 
  25   2.0000      -1.114349       -30.3230 
  26   2.0000      -1.102830       -30.0095 
  27   2.0000      -1.099517       -29.9194 
  28   2.0000      -1.015986       -27.6464 
  29   2.0000      -1.013199       -27.5705 
  30   2.0000      -1.003268       -27.3003 
  31   2.0000      -1.002889       -27.2900 
  32   2.0000      -0.760596       -20.6969 
  33   2.0000      -0.760285       -20.6884 
  34   2.0000      -0.747104       -20.3297 
  35   2.0000      -0.746027       -20.3004 
  36   2.0000      -0.571614       -15.5544 
  37   2.0000      -0.566614       -15.4184 
  38   2.0000      -0.553392       -15.0586 
  39   2.0000      -0.549536       -14.9536 
  40   2.0000      -0.518957       -14.1215 
  41   2.0000      -0.515002       -14.0139 
  42   2.0000      -0.492796       -13.4097 
  43   2.0000      -0.489612       -13.3230 
  44   2.0000      -0.486686       -13.2434 
  45   2.0000      -0.485695       -13.2164 
  46   2.0000      -0.479128       -13.0377 
  47   2.0000      -0.474783       -12.9195 
  48   2.0000      -0.473066       -12.8728 
  49   2.0000      -0.472240       -12.8503 
  50   2.0000      -0.470525       -12.8036 
  51   2.0000      -0.460786       -12.5386 
  52   2.0000      -0.407903       -11.0996 
  53   2.0000      -0.407506       -11.0888 
  54   2.0000      -0.404524       -11.0076 
  55   2.0000      -0.404085       -10.9957 
  56   2.0000      -0.399224       -10.8634 
  57   2.0000      -0.395711       -10.7679 
  58   2.0000      -0.392402       -10.6778 
  59   2.0000      -0.380888       -10.3645 
  60   2.0000      -0.359603        -9.7853 
  61   2.0000      -0.358837        -9.7645 
  62   2.0000      -0.357104        -9.7173 
  63   2.0000      -0.346132        -9.4187 
  64   2.0000      -0.341944        -9.3048 
  65   2.0000      -0.326461        -8.8835 
  66   2.0000      -0.320305        -8.7160 
  67   2.0000      -0.317583        -8.6419 
  68   2.0000      -0.311461        -8.4753 
  69   2.0000      -0.309348        -8.4178 
  70   2.0000      -0.297312        -8.0903 
  71   2.0000      -0.295117        -8.0305 
  72   2.0000      -0.289212        -7.8698 
  73   2.0000      -0.276071        -7.5123 
  74   2.0000      -0.264227        -7.1900 
  75   2.0000      -0.262202        -7.1349 
  76   2.0000      -0.254185        -6.9167 
  77   2.0000      -0.248170        -6.7530 
  78   2.0000      -0.245147        -6.6708 
  79   2.0000      -0.213113        -5.7991 
  80   0.0000      -0.117791        -3.2053 
  81   0.0000      -0.108429        -2.9505 
  82   0.0000      -0.025905        -0.7049 
  83   0.0000      -0.016221        -0.4414 
  84   0.0000      -0.008957        -0.2437 
  85   0.0000      -0.005865        -0.1596 
  86   0.0000       0.017061         0.4643 
  87   0.0000       0.037203         1.0123 
  88   0.0000       0.037991         1.0338 
  89   0.0000       0.047445         1.2911 
  90   0.0000       0.057888         1.5752 
*Only the first 10 virtual orbitals were printed.

                    ********************************
                    * MULLIKEN POPULATION ANALYSIS *
                    ********************************

-----------------------
MULLIKEN ATOMIC CHARGES
-----------------------
   0 Pd:    0.571768
   1 O :   -0.445436
   2 O :   -0.444805
   3 C :    0.534020
   4 C :   -0.340573
   5 H :    0.140002
   6 H :    0.139656
   7 H :    0.131722
   8 O :   -0.430506
   9 C :    0.534713
  10 O :   -0.430763
  11 C :   -0.382545
  12 H :    0.145667
  13 H :    0.132027
  14 H :    0.145181
  15 O :   -0.430947
  16 Pd:    0.571678
  17 O :   -0.430367
  18 C :    0.534719
  19 H :    0.145149
  20 H :    0.132008
  21 C :   -0.382521
  22 H :    0.145671
  23 O :   -0.445693
  24 C :    0.534183
  25 O :   -0.444755
  26 C :   -0.340862
  27 H :    0.131766
  28 H :    0.140027
  29 H :    0.139815
Sum of atomic charges:   -0.0000000

--------------------------------
MULLIKEN REDUCED ORBITAL CHARGES
--------------------------------
  0 Pds       :     2.539789  s :     2.539789
      pz      :     2.077815  p :     6.244265
      px      :     2.077972
      py      :     2.088479
      dz2     :     1.179190  d :     8.639071
      dxz     :     1.961827
      dyz     :     1.893429
      dx2y2   :     1.611268
      dxy     :     1.993357
      f0      :     0.001245  f :     0.005106
      f+1     :     0.000480
      f-1     :     0.001487
      f+2     :     0.000362
      f-2     :     0.000135
      f+3     :     0.000386
      f-3     :     0.001012

  1 O s       :     3.872217  s :     3.872217
      pz      :     1.496437  p :     4.538092
      px      :     1.475654
      py      :     1.566001
      dz2     :     0.006609  d :     0.033152
      dxz     :     0.008891
      dyz     :     0.003568
      dx2y2   :     0.006943
      dxy     :     0.007141
      f0      :     0.000215  f :     0.001975
      f+1     :     0.000432
      f-1     :     0.000116
      f+2     :     0.000351
      f-2     :     0.000285
      f+3     :     0.000289
      f-3     :     0.000285

  2 O s       :     3.872056  s :     3.872056
      pz      :     1.524967  p :     4.537544
      px      :     1.428121
      py      :     1.584456
      dz2     :     0.006648  d :     0.033229
      dxz     :     0.008457
      dyz     :     0.003252
      dx2y2   :     0.007247
      dxy     :     0.007624
      f0      :     0.000206  f :     0.001977
      f+1     :     0.000431
      f-1     :     0.000087
      f+2     :     0.000355
      f-2     :     0.000240
      f+3     :     0.000315
      f-3     :     0.000342

  3 C s       :     3.049754  s :     3.049754
      pz      :     0.751360  p :     2.115041
      px      :     0.645618
      py      :     0.718063
      dz2     :     0.066711  d :     0.274356
      dxz     :     0.063890
      dyz     :     0.029280
      dx2y2   :     0.044679
      dxy     :     0.069796
      f0      :     0.002007  f :     0.026830
      f+1     :     0.009302
      f-1     :     0.001446
      f+2     :     0.003405
      f-2     :     0.003456
      f+3     :     0.003371
      f-3     :     0.003843

  4 C s       :     3.275454  s :     3.275454
      pz      :     0.893703  p :     3.027192
      px      :     1.076171
      py      :     1.057317
      dz2     :     0.007793  d :     0.034407
      dxz     :     0.011600
      dyz     :     0.008929
      dx2y2   :     0.003351
      dxy     :     0.002734
      f0      :     0.001256  f :     0.003520
      f+1     :     0.000913
      f-1     :     0.000576
      f+2     :     0.000034
      f-2     :    -0.000003
      f+3     :     0.000375
      f-3     :     0.000368

  5 H s       :     0.837301  s :     0.837301
      pz      :     0.005801  p :     0.022697
      px      :     0.009047
      py      :     0.007849

  6 H s       :     0.837645  s :     0.837645
      pz      :     0.006193  p :     0.022698
      px      :     0.011509
      py      :     0.004996

  7 H s       :     0.845015  s :     0.845015
      pz      :     0.005396  p :     0.023263
      px      :     0.005615
      py      :     0.012252

  8 O s       :     3.908717  s :     3.908717
      pz      :     1.298213  p :     4.485482
      px      :     1.577651
      py      :     1.609618
      dz2     :     0.012303  d :     0.034509
      dxz     :     0.008550
      dyz     :     0.007712
      dx2y2   :     0.003207
      dxy     :     0.002736
      f0      :     0.000578  f :     0.001798
      f+1     :     0.000484
      f-1     :     0.000439
      f+2     :     0.000092
      f-2     :     0.000056
      f+3     :     0.000076
      f-3     :     0.000074

  9 C s       :     3.099445  s :     3.099445
      pz      :     0.665287  p :     2.056884
      px      :     0.723514
      py      :     0.668083
      dz2     :     0.048113  d :     0.285241
      dxz     :     0.056617
      dyz     :     0.109846
      dx2y2   :     0.019036
      dxy     :     0.051629
      f0      :     0.003849  f :     0.023717
      f+1     :     0.003648
      f-1     :     0.006758
      f+2     :     0.002324
      f-2     :     0.001882
      f+3     :     0.003336
      f-3     :     0.001920

 10 O s       :     3.909255  s :     3.909255
      pz      :     1.595510  p :     4.485161
      px      :     1.580131
      py      :     1.309520
      dz2     :     0.007461  d :     0.034548
      dxz     :     0.003942
      dyz     :     0.009180
      dx2y2   :     0.006608
      dxy     :     0.007357
      f0      :     0.000185  f :     0.001799
      f+1     :     0.000067
      f-1     :     0.000353
      f+2     :     0.000347
      f-2     :     0.000170
      f+3     :     0.000374
      f-3     :     0.000303

 11 C s       :     3.311541  s :     3.311541
      pz      :     1.013758  p :     3.035680
      px      :     1.049347
      py      :     0.972575
      dz2     :     0.007209  d :     0.032059
      dxz     :     0.006148
      dyz     :     0.004986
      dx2y2   :     0.005717
      dxy     :     0.007999
      f0      :     0.000223  f :     0.003264
      f+1     :     0.000260
      f-1     :     0.000739
      f+2     :     0.000760
      f-2     :     0.000695
      f+3     :     0.000329
      f-3     :     0.000260

 12 H s       :     0.831545  s :     0.831545
      pz      :     0.006374  p :     0.022787
      px      :     0.006462
      py      :     0.009951

 13 H s       :     0.844710  s :     0.844710
      pz      :     0.005547  p :     0.023263
      px      :     0.011797
      py      :     0.005919

 14 H s       :     0.832043  s :     0.832043
      pz      :     0.011138  p :     0.022776
      px      :     0.006792
      py      :     0.004846

 15 O s       :     3.909302  s :     3.909302
      pz      :     1.304790  p :     4.485350
      px      :     1.570429
      py      :     1.610131
      dz2     :     0.012106  d :     0.034496
      dxz     :     0.008075
      dyz     :     0.008043
      dx2y2   :     0.002969
      dxy     :     0.003302
      f0      :     0.000565  f :     0.001798
      f+1     :     0.000440
      f-1     :     0.000448
      f+2     :     0.000094
      f-2     :     0.000105
      f+3     :     0.000071
      f-3     :     0.000075

 16 Pds       :     2.539837  s :     2.539837
      pz      :     2.075890  p :     6.244579
      px      :     2.095621
      py      :     2.073067
      dz2     :     1.229083  d :     8.638793
      dxz     :     1.859342
      dyz     :     1.957116
      dx2y2   :     1.818160
      dxy     :     1.775093
      f0      :     0.001115  f :     0.005113
      f+1     :     0.001026
      f-1     :     0.001007
      f+2     :     0.000262
      f-2     :     0.000300
      f+3     :     0.001001
      f-3     :     0.000402

 17 O s       :     3.908439  s :     3.908439
      pz      :     1.594815  p :     4.485619
      px      :     1.541284
      py      :     1.349520
      dz2     :     0.007328  d :     0.034512
      dxz     :     0.004956
      dyz     :     0.008154
      dx2y2   :     0.007293
      dxy     :     0.006780
      f0      :     0.000183  f :     0.001798
      f+1     :     0.000100
      f-1     :     0.000319
      f+2     :     0.000264
      f-2     :     0.000255
      f+3     :     0.000313
      f-3     :     0.000364

 18 C s       :     3.099530  s :     3.099530
      pz      :     0.668738  p :     2.056779
      px      :     0.710737
      py      :     0.677304
      dz2     :     0.047908  d :     0.285251
      dxz     :     0.063928
      dyz     :     0.100362
      dx2y2   :     0.033394
      dxy     :     0.039659
      f0      :     0.003928  f :     0.023721
      f+1     :     0.004101
      f-1     :     0.005795
      f+2     :     0.002408
      f-2     :     0.002234
      f+3     :     0.002188
      f-3     :     0.003068

 19 H s       :     0.832075  s :     0.832075
      pz      :     0.006920  p :     0.022776
      px      :     0.007550
      py      :     0.008305

 20 H s       :     0.844735  s :     0.844735
      pz      :     0.006998  p :     0.023257
      px      :     0.008652
      py      :     0.007607

 21 C s       :     3.311359  s :     3.311359
      pz      :     1.022558  p :     3.035818
      px      :     1.012418
      py      :     1.000843
      dz2     :     0.005211  d :     0.032078
      dxz     :     0.007550
      dyz     :     0.005816
      dx2y2   :     0.005531
      dxy     :     0.007970
      f0      :     0.000116  f :     0.003266
      f+1     :     0.000195
      f-1     :     0.000480
      f+2     :     0.000376
      f-2     :     0.001755
      f+3     :     0.000108
      f-3     :     0.000237

 22 H s       :     0.831540  s :     0.831540
      pz      :     0.009308  p :     0.022789
      px      :     0.007208
      py      :     0.006273

 23 O s       :     3.872233  s :     3.872233
      pz      :     1.579213  p :     4.538270
      px      :     1.364890
      py      :     1.594166
      dz2     :     0.003096  d :     0.033213
      dxz     :     0.008409
      dyz     :     0.002212
      dx2y2   :     0.011367
      dxy     :     0.008129
      f0      :     0.000250  f :     0.001977
      f+1     :     0.000280
      f-1     :     0.000094
      f+2     :     0.000284
      f-2     :     0.000126
      f+3     :     0.000475
      f-3     :     0.000469

 24 C s       :     3.049703  s :     3.049703
      pz      :     0.725552  p :     2.114914
      px      :     0.646997
      py      :     0.742365
      dz2     :     0.005066  d :     0.274366
      dxz     :     0.074067
      dyz     :     0.031181
      dx2y2   :     0.093162
      dxy     :     0.070890
      f0      :     0.003103  f :     0.026834
      f+1     :     0.001761
      f-1     :     0.001145
      f+2     :     0.002593
      f-2     :     0.003521
      f+3     :     0.008068
      f-3     :     0.006643

 25 O s       :     3.872109  s :     3.872109
      pz      :     1.581847  p :     4.537464
      px      :     1.533689
      py      :     1.421927
      dz2     :     0.002999  d :     0.033205
      dxz     :     0.006039
      dyz     :     0.004551
      dx2y2   :     0.009268
      dxy     :     0.010348
      f0      :     0.000256  f :     0.001976
      f+1     :     0.000177
      f-1     :     0.000184
      f+2     :     0.000070
      f-2     :     0.000327
      f+3     :     0.000491
      f-3     :     0.000472

 26 C s       :     3.275618  s :     3.275618
      pz      :     1.048933  p :     3.027309
      px      :     1.068804
      py      :     0.909572
      dz2     :     0.004265  d :     0.034414
      dxz     :     0.004298
      dyz     :     0.009607
      dx2y2   :     0.006978
      dxy     :     0.009265
      f0      :     0.000488  f :     0.003521
      f+1     :     0.000098
      f-1     :     0.000451
      f+2     :     0.000715
      f-2     :     0.000128
      f+3     :     0.000830
      f-3     :     0.000812

 27 H s       :     0.844966  s :     0.844966
      pz      :     0.011417  p :     0.023268
      px      :     0.005133
      py      :     0.006718

 28 H s       :     0.837278  s :     0.837278
      pz      :     0.006604  p :     0.022695
      px      :     0.009417
      py      :     0.006674

 29 H s       :     0.837486  s :     0.837486
      pz      :     0.006832  p :     0.022699
      px      :     0.011273
      py      :     0.004594



                     *******************************
                     * LOEWDIN POPULATION ANALYSIS *
                     *******************************

----------------------
LOEWDIN ATOMIC CHARGES
----------------------
   0 Pd:    0.226878
   1 O :    0.127674
   2 O :    0.128224
   3 C :   -0.522491
   4 C :   -0.242815
   5 H :    0.139015
   6 H :    0.138193
   7 H :    0.145311
   8 O :    0.110584
   9 C :   -0.548782
  10 O :    0.111362
  11 C :   -0.247096
  12 H :    0.144069
  13 H :    0.147036
  14 H :    0.142749
  15 O :    0.111370
  16 Pd:    0.226931
  17 O :    0.110293
  18 C :   -0.548824
  19 H :    0.142627
  20 H :    0.146974
  21 C :   -0.247145
  22 H :    0.144222
  23 O :    0.127868
  24 C :   -0.522399
  25 O :    0.128372
  26 C :   -0.242762
  27 H :    0.145315
  28 H :    0.138867
  29 H :    0.138381

-------------------------------
LOEWDIN REDUCED ORBITAL CHARGES
-------------------------------
  0 Pds       :     2.286843  s :     2.286843
      pz      :     2.204848  p :     6.543704
      px      :     2.121746
      py      :     2.217110
      dz2     :     1.324393  d :     8.936267
      dxz     :     1.972071
      dyz     :     1.929956
      dx2y2   :     1.704347
      dxy     :     2.005501
      f0      :     0.001615  f :     0.006307
      f+1     :     0.000581
      f-1     :     0.001860
      f+2     :     0.000388
      f-2     :     0.000137
      f+3     :     0.000431
      f-3     :     0.001295

  1 O s       :     3.339995  s :     3.339995
      pz      :     1.458885  p :     4.446186
      px      :     1.517741
      py      :     1.469560
      dz2     :     0.018612  d :     0.080361
      dxz     :     0.024968
      dyz     :     0.009287
      dx2y2   :     0.015304
      dxy     :     0.012190
      f0      :     0.000626  f :     0.005783
      f+1     :     0.001577
      f-1     :     0.000323
      f+2     :     0.001043
      f-2     :     0.000657
      f+3     :     0.000789
      f-3     :     0.000768

  2 O s       :     3.339940  s :     3.339940
      pz      :     1.471800  p :     4.445552
      px      :     1.499284
      py      :     1.474468
      dz2     :     0.017847  d :     0.080495
      dxz     :     0.025225
      dyz     :     0.007658
      dx2y2   :     0.017292
      dxy     :     0.012473
      f0      :     0.000660  f :     0.005789
      f+1     :     0.001492
      f-1     :     0.000271
      f+2     :     0.001166
      f-2     :     0.000438
      f+3     :     0.000937
      f-3     :     0.000825

  3 C s       :     2.740596  s :     2.740596
      pz      :     0.987529  p :     2.630928
      px      :     0.919614
      py      :     0.723785
      dz2     :     0.227310  d :     0.986254
      dxz     :     0.267173
      dyz     :     0.093269
      dx2y2   :     0.190094
      dxy     :     0.208408
      f0      :     0.011777  f :     0.164713
      f+1     :     0.059336
      f-1     :     0.008522
      f+2     :     0.022177
      f-2     :     0.025294
      f+3     :     0.019064
      f-3     :     0.018543

  4 C s       :     2.840810  s :     2.840810
      pz      :     1.015335  p :     3.158639
      px      :     1.073008
      py      :     1.070296
      dz2     :     0.064062  d :     0.219885
      dxz     :     0.061330
      dyz     :     0.040415
      dx2y2   :     0.029709
      dxy     :     0.024368
      f0      :     0.006280  f :     0.023481
      f+1     :     0.004483
      f-1     :     0.004878
      f+2     :     0.002234
      f-2     :     0.002472
      f+3     :     0.001582
      f-3     :     0.001551

  5 H s       :     0.798793  s :     0.798793
      pz      :     0.014622  p :     0.062192
      px      :     0.025354
      py      :     0.022216

  6 H s       :     0.799636  s :     0.799636
      pz      :     0.015611  p :     0.062171
      px      :     0.032488
      py      :     0.014072

  7 H s       :     0.792519  s :     0.792519
      pz      :     0.013408  p :     0.062170
      px      :     0.015216
      py      :     0.033546

  8 O s       :     3.374374  s :     3.374374
      pz      :     1.448636  p :     4.432673
      px      :     1.477476
      py      :     1.506562
      dz2     :     0.031614  d :     0.076424
      dxz     :     0.013668
      dyz     :     0.020938
      dx2y2   :     0.005145
      dxy     :     0.005059
      f0      :     0.002047  f :     0.005945
      f+1     :     0.001136
      f-1     :     0.002000
      f+2     :     0.000214
      f-2     :     0.000196
      f+3     :     0.000182
      f-3     :     0.000170

  9 C s       :     2.752187  s :     2.752187
      pz      :     0.948643  p :     2.638046
      px      :     0.709797
      py      :     0.979606
      dz2     :     0.235922  d :     0.995419
      dxz     :     0.159568
      dyz     :     0.341286
      dx2y2   :     0.118552
      dxy     :     0.140093
      f0      :     0.028244  f :     0.163129
      f+1     :     0.022918
      f-1     :     0.052457
      f+2     :     0.015606
      f-2     :     0.012712
      f+3     :     0.017306
      f-3     :     0.013887

 10 O s       :     3.374391  s :     3.374391
      pz      :     1.527350  p :     4.431806
      px      :     1.476744
      py      :     1.427713
      dz2     :     0.013908  d :     0.076495
      dxz     :     0.005789
      dyz     :     0.025347
      dx2y2   :     0.019323
      dxy     :     0.012128
      f0      :     0.000714  f :     0.005946
      f+1     :     0.000154
      f-1     :     0.001576
      f+2     :     0.001244
      f-2     :     0.000524
      f+3     :     0.000707
      f-3     :     0.001026

 11 C s       :     2.837931  s :     2.837931
      pz      :     1.056562  p :     3.170048
      px      :     1.066443
      py      :     1.047043
      dz2     :     0.039894  d :     0.215732
      dxz     :     0.036997
      dyz     :     0.057786
      dx2y2   :     0.041740
      dxy     :     0.039315
      f0      :     0.003093  f :     0.023385
      f+1     :     0.002370
      f-1     :     0.004739
      f+2     :     0.003664
      f-2     :     0.003404
      f+3     :     0.003136
      f-3     :     0.002980

 12 H s       :     0.793746  s :     0.793746
      pz      :     0.018477  p :     0.062184
      px      :     0.018014
      py      :     0.025694

 13 H s       :     0.790984  s :     0.790984
      pz      :     0.014350  p :     0.061981
      px      :     0.032803
      py      :     0.014828

 14 H s       :     0.795119  s :     0.795119
      pz      :     0.029515  p :     0.062133
      px      :     0.018959
      py      :     0.013658

 15 O s       :     3.374532  s :     3.374532
      pz      :     1.449844  p :     4.431777
      px      :     1.470290
      py      :     1.511642
      dz2     :     0.030385  d :     0.076381
      dxz     :     0.014724
      dyz     :     0.020387
      dx2y2   :     0.005416
      dxy     :     0.005469
      f0      :     0.001909  f :     0.005940
      f+1     :     0.001260
      f-1     :     0.001851
      f+2     :     0.000310
      f-2     :     0.000252
      f+3     :     0.000173
      f-3     :     0.000186

 16 Pds       :     2.286860  s :     2.286860
      pz      :     2.201834  p :     6.543693
      px      :     2.152048
      py      :     2.189810
      dz2     :     1.370010  d :     8.936200
      dxz     :     1.883771
      dyz     :     1.983460
      dx2y2   :     1.875806
      dxy     :     1.823152
      f0      :     0.001440  f :     0.006317
      f+1     :     0.001290
      f-1     :     0.001248
      f+2     :     0.000287
      f-2     :     0.000317
      f+3     :     0.001274
      f-3     :     0.000460

 17 O s       :     3.374294  s :     3.374294
      pz      :     1.525935  p :     4.433013
      px      :     1.464006
      py      :     1.443072
      dz2     :     0.013706  d :     0.076455
      dxz     :     0.008622
      dyz     :     0.022257
      dx2y2   :     0.016327
      dxy     :     0.015543
      f0      :     0.000702  f :     0.005944
      f+1     :     0.000381
      f-1     :     0.001319
      f+2     :     0.001012
      f-2     :     0.000765
      f+3     :     0.001016
      f-3     :     0.000750

 18 C s       :     2.752169  s :     2.752169
      pz      :     0.943453  p :     2.638088
      px      :     0.771589
      py      :     0.923046
      dz2     :     0.233316  d :     0.995428
      dxz     :     0.187103
      dyz     :     0.307263
      dx2y2   :     0.128149
      dxy     :     0.139597
      f0      :     0.028265  f :     0.163139
      f+1     :     0.027663
      f-1     :     0.044896
      f+2     :     0.017765
      f-2     :     0.012570
      f+3     :     0.015079
      f-3     :     0.016901

 19 H s       :     0.795250  s :     0.795250
      pz      :     0.019983  p :     0.062123
      px      :     0.020463
      py      :     0.021677

 20 H s       :     0.791043  s :     0.791043
      pz      :     0.017835  p :     0.061982
      px      :     0.024901
      py      :     0.019246

 21 C s       :     2.837918  s :     2.837918
      pz      :     1.057145  p :     3.170083
      px      :     1.059795
      py      :     1.053143
      dz2     :     0.023639  d :     0.215757
      dxz     :     0.054945
      dyz     :     0.059288
      dx2y2   :     0.019598
      dxy     :     0.058287
      f0      :     0.004085  f :     0.023388
      f+1     :     0.002191
      f-1     :     0.004013
      f+2     :     0.002355
      f-2     :     0.004654
      f+3     :     0.002631
      f-3     :     0.003459

 22 H s       :     0.793592  s :     0.793592
      pz      :     0.024555  p :     0.062186
      px      :     0.019529
      py      :     0.018102

 23 O s       :     3.339795  s :     3.339795
      pz      :     1.469655  p :     4.446042
      px      :     1.470533
      py      :     1.505854
      dz2     :     0.008293  d :     0.080507
      dxz     :     0.013935
      dyz     :     0.005491
      dx2y2   :     0.028550
      dxy     :     0.024238
      f0      :     0.000458  f :     0.005789
      f+1     :     0.000816
      f-1     :     0.000199
      f+2     :     0.000741
      f-2     :     0.000220
      f+3     :     0.001560
      f-3     :     0.001795

 24 C s       :     2.740550  s :     2.740550
      pz      :     0.717350  p :     2.630878
      px      :     0.931022
      py      :     0.982506
      dz2     :     0.067921  d :     0.986238
      dxz     :     0.206375
      dyz     :     0.094857
      dx2y2   :     0.329737
      dxy     :     0.287348
      f0      :     0.010271  f :     0.164733
      f+1     :     0.014342
      f-1     :     0.006747
      f+2     :     0.015543
      f-2     :     0.024619
      f+3     :     0.051060
      f-3     :     0.042151

 25 O s       :     3.339971  s :     3.339971
      pz      :     1.470667  p :     4.445437
      px      :     1.545478
      py      :     1.429292
      dz2     :     0.008322  d :     0.080434
      dxz     :     0.008586
      dyz     :     0.010344
      dx2y2   :     0.025291
      dxy     :     0.027890
      f0      :     0.000446  f :     0.005787
      f+1     :     0.000557
      f-1     :     0.000487
      f+2     :     0.000236
      f-2     :     0.000651
      f+3     :     0.001886
      f-3     :     0.001525

 26 C s       :     2.840765  s :     2.840765
      pz      :     1.069659  p :     3.158617
      px      :     1.070572
      py      :     1.018387
      dz2     :     0.029434  d :     0.219896
      dxz     :     0.033112
      dyz     :     0.049978
      dx2y2   :     0.056189
      dxy     :     0.051183
      f0      :     0.003215  f :     0.023485
      f+1     :     0.000636
      f-1     :     0.004213
      f+2     :     0.003258
      f-2     :     0.002081
      f+3     :     0.005061
      f-3     :     0.005019

 27 H s       :     0.792501  s :     0.792501
      pz      :     0.032001  p :     0.062184
      px      :     0.013817
      py      :     0.016366

 28 H s       :     0.798944  s :     0.798944
      pz      :     0.018521  p :     0.062189
      px      :     0.026869
      py      :     0.016800

 29 H s       :     0.799438  s :     0.799438
      pz      :     0.019157  p :     0.062181
      px      :     0.031199
      py      :     0.011825



                      *****************************
                      * MAYER POPULATION ANALYSIS *
                      *****************************

  NA   - Mulliken gross atomic population
  ZA   - Total nuclear charge
  QA   - Mulliken gross atomic charge
  VA   - Mayer's total valence
  BVA  - Mayer's bonded valence
  FA   - Mayer's free valence

  ATOM       NA         ZA         QA         VA         BVA        FA
  0 Pd    17.4282    18.0000     0.5718     2.3303     2.3303    -0.0000
  1 O      8.4454     8.0000    -0.4454     2.0425     2.0425    -0.0000
  2 O      8.4448     8.0000    -0.4448     2.0469     2.0469    -0.0000
  3 C      5.4660     6.0000     0.5340     3.9342     3.9342     0.0000
  4 C      6.3406     6.0000    -0.3406     3.8901     3.8901     0.0000
  5 H      0.8600     1.0000     0.1400     0.9785     0.9785     0.0000
  6 H      0.8603     1.0000     0.1397     0.9789     0.9789     0.0000
  7 H      0.8683     1.0000     0.1317     0.9780     0.9780     0.0000
  8 O      8.4305     8.0000    -0.4305     2.0617     2.0617     0.0000
  9 C      5.4653     6.0000     0.5347     3.8058     3.8058    -0.0000
 10 O      8.4308     8.0000    -0.4308     2.0657     2.0657    -0.0000
 11 C      6.3825     6.0000    -0.3825     3.9091     3.9091    -0.0000
 12 H      0.8543     1.0000     0.1457     0.9771     0.9771    -0.0000
 13 H      0.8680     1.0000     0.1320     0.9758     0.9758    -0.0000
 14 H      0.8548     1.0000     0.1452     0.9777     0.9777    -0.0000
 15 O      8.4309     8.0000    -0.4309     2.0662     2.0662    -0.0000
 16 Pd    17.4283    18.0000     0.5717     2.3318     2.3318    -0.0000
 17 O      8.4304     8.0000    -0.4304     2.0612     2.0612     0.0000
 18 C      5.4653     6.0000     0.5347     3.8062     3.8062     0.0000
 19 H      0.8549     1.0000     0.1451     0.9778     0.9778    -0.0000
 20 H      0.8680     1.0000     0.1320     0.9758     0.9758    -0.0000
 21 C      6.3825     6.0000    -0.3825     3.9089     3.9089     0.0000
 22 H      0.8543     1.0000     0.1457     0.9770     0.9770    -0.0000
 23 O      8.4457     8.0000    -0.4457     2.0429     2.0429    -0.0000
 24 C      5.4658     6.0000     0.5342     3.9340     3.9340    -0.0000
 25 O      8.4448     8.0000    -0.4448     2.0462     2.0462     0.0000
 26 C      6.3409     6.0000    -0.3409     3.8900     3.8900    -0.0000
 27 H      0.8682     1.0000     0.1318     0.9780     0.9780     0.0000
 28 H      0.8600     1.0000     0.1400     0.9785     0.9785    -0.0000
 29 H      0.8602     1.0000     0.1398     0.9788     0.9788    -0.0000

  Mayer bond orders larger than 0.100000
B(  0-Pd,  1-O ) :   0.4527 B(  0-Pd,  8-O ) :   0.5102 B(  0-Pd, 10-O ) :   0.5110 
B(  0-Pd, 16-Pd) :   0.2138 B(  0-Pd, 25-O ) :   0.4529 B(  1-O ,  3-C ) :   1.4460 
B(  2-O ,  3-C ) :   1.4485 B(  2-O , 16-Pd) :   0.4533 B(  3-C ,  4-C ) :   0.9782 
B(  4-C ,  5-H ) :   0.9697 B(  4-C ,  6-H ) :   0.9718 B(  4-C ,  7-H ) :   0.9399 
B(  8-O ,  9-C ) :   1.3872 B(  9-C , 10-O ) :   1.3881 B(  9-C , 11-C ) :   0.9798 
B( 11-C , 12-H ) :   0.9676 B( 11-C , 13-H ) :   0.9388 B( 11-C , 14-H ) :   0.9720 
B( 15-O , 16-Pd) :   0.5102 B( 15-O , 18-C ) :   1.3893 B( 16-Pd, 17-O ) :   0.5106 
B( 16-Pd, 23-O ) :   0.4531 B( 17-O , 18-C ) :   1.3864 B( 18-C , 21-C ) :   0.9799 
B( 19-H , 21-C ) :   0.9725 B( 20-H , 21-C ) :   0.9390 B( 21-C , 22-H ) :   0.9669 
B( 23-O , 24-C ) :   1.4458 B( 24-C , 25-O ) :   1.4486 B( 24-C , 26-C ) :   0.9782 
B( 26-C , 27-H ) :   0.9398 B( 26-C , 28-H ) :   0.9701 B( 26-C , 29-H ) :   0.9714 


-------
TIMINGS
-------

Total SCF time: 0 days 0 hours 2 min 50 sec 

Total time                  ....     170.729 sec
Sum of individual times     ....     168.545 sec  ( 98.7%)

SCF preparation             ....       2.312 sec  (  1.4%)
Fock matrix formation       ....     125.030 sec  ( 73.2%)
  Startup                   ....       5.166 sec  (  4.1% of F)
  Split-RI-J                ....      20.059 sec  ( 16.0% of F)
  Chain of spheres X        ....      62.083 sec  ( 49.7% of F)
  XC integration            ....      28.325 sec  ( 22.7% of F)
    XC Preparation          ....       0.000 sec  (  0.0% of XC)
    Basis function eval.    ....       2.820 sec  ( 10.0% of XC)
    Density eval.           ....       6.639 sec  ( 23.4% of XC)
    XC-Functional eval.     ....       1.006 sec  (  3.6% of XC)
    XC-Potential eval.      ....       6.571 sec  ( 23.2% of XC)
Diagonalization             ....       0.000 sec  (  0.0%)
Density matrix formation    ....      10.955 sec  (  6.4%)
Total Energy calculation    ....       4.110 sec  (  2.4%)
Population analysis         ....       0.841 sec  (  0.5%)
Orbital Transformation      ....       1.090 sec  (  0.6%)
Orbital Orthonormalization  ....       0.000 sec  (  0.0%)
DIIS solution               ....      21.452 sec  ( 12.6%)
SOSCF solution              ....       2.753 sec  (  1.6%)
Finished LeanSCF after 171.1 sec

Maximum memory used throughout the entire LEANSCF-calculation: 79.0 MB


-------------------------------------------------------------------------------
                          DFT DISPERSION CORRECTION                            
                                                                               
                              DFTD3 V3.1  Rev 1                                
                          USING Becke-Johnson damping                          
-------------------------------------------------------------------------------
The R2SCANh functional is recognized
Active option DFTDOPT                   ...         4   

molecular C6(AA) [au] = 13175.718293 


            DFT-D V3
 parameters
 s6 scaling factor         :     1.0000 
 a1 scaling factor         :     0.4709 
 s8 scaling factor         :     1.1236 
 a2 scaling factor         :     5.9157 
 ad hoc parameters k1-k3   :    16.0000     1.3333    -4.0000 

 Edisp/kcal,au: -7.705108387124  -0.012278870493 
 E6   /kcal   :  -5.234521243 
 E8   /kcal   :  -2.470587144 
 % E8         :  32.064275022 

-------------------------   ----------------
Dispersion correction           -0.012278870
-------------------------   ----------------


-------------------------   --------------------
FINAL SINGLE POINT ENERGY     -1169.813465687078
-------------------------   --------------------



           ************************************************************
           *        Program running with 16 parallel MPI-processes    *
           *              working on a common directory               *
           ************************************************************

------------------------------------------------------------------------------
                              ORCA PROPERTY CALCULATIONS
------------------------------------------------------------------------------

GBWName                                 ... CS_PdOAc_002_sp_02.gbw
Number of atoms                         ...     30
Number of basis functions               ...    648
Max core memory                         ...   3500 MB

Electric properties:
Dipole moment                           ... YES
Quadrupole moment                       ...  NO
Static polarizability (Dipole/Dipole)   ...  NO
Static polarizability (Dipole/Quad.)    ...  NO
Static polarizability (Quad./Quad.)     ...  NO
Static polarizability (Velocity)        ...  NO

Atomic electric properties:
Dipole moment                           ...  NO
Quadrupole moment                       ...  NO
Static polarizability                   ...  NO

Choice of electric origin               ... Center of mass
Position of electric origin             ...     0.937214     2.331042    -0.201412

General magnetic properties:
Magnetizability                         ...  NO

EPR properties:
g-Tensor (aka g-matrix)                 ...  NO
Zero-Field splitting spin-orbit         ...  NO
Zero-field splitting spin-spin          ...  NO
Hyperfine couplings                     ...  NO (   0 nuclei)
Quadrupole couplings                    ...  NO (   0 nuclei)
Contact density                         ...  NO (   0 nuclei)

NMR properties:
Chemical shifts                         ...  NO (   0 nuclei)
Spin-rotation constants                 ...  NO (   0 nuclei)
Spin-spin couplings                     ...  NO (   0 nuclei,    0 pairs)

Choice of magnetic origin               ... GIAO
Position of magnetic origin             ...     0.000000     0.000000     0.000000

Properties with geometric perturbations:
SCF Hessian                             ...  NO
IR spectrum                             ...  NO
VCD spectrum                            ...  NO
X-ray spectroscopy properties:
SCF XES/XAS/RIXS spectra                ...  NO


-------------
DIPOLE MOMENT
-------------

Method             : SCF
Type of density    : Electron Density
Multiplicity       :   1
Irrep              :   0
Energy             : -1169.8011868165854139 Eh
Relativity type    : 
Basis              : AO
                                X                 Y                 Z
Electronic contribution:     -3.822186514     -15.808609018     -12.896623625
Nuclear contribution   :      3.918704490      16.204977420      13.222421659
                        -----------------------------------------
Total Dipole Moment    :      0.096517976       0.396368402       0.325798033
                        -----------------------------------------
Magnitude (a.u.)       :      0.522080443
Magnitude (Debye)      :      1.327023025



--------------------
Rotational spectrum 
--------------------
 
Rotational constants in cm-1:             0.010011             0.009691             0.007268 
Rotational constants in MHz :           300.130587           290.515305           217.877806 

Dipole components along the rotational axes: 
x,y,z [a.u.] :     0.521886     0.013485     0.004602 
x,y,z [Debye]:     1.326529     0.034276     0.011698 

 

Dipole moment calculation done in   0.2 sec 

Maximum memory used throughout the entire PROP-calculation: 42.3 MB

--------------------------------
SUGGESTED CITATIONS FOR THIS RUN
--------------------------------

Below you find a list of papers that are relevant to this ORCA run
We neither can nor want to force you to cite these papers, but we appreciate if you do
You receive ORCA, which is the product of decades of hard work by many enthusiastic individuals, for free
The only thing we kindly ask in return is that you cite our papers,
We deeply appreciate it, if you show your appreciation for ORCA by not just citing the generic ORCA reference.

Please note that relegating all ORCA citations to the supporting information does *not* help us.
SI sections are not indexed - citations you put there will not count into any citation statistics
But we need these citations in order to attract the funding resources that allow us to do what we are doing

Therefore, if you are a happy ORCA user, please consider citing a few of the papers listed below in the main body of your paper

In addition to the list printed below, the program has created the file CS_PdOAc_002_sp_02.bibtex that contains the list in bibtex format
You can import this file easily into all common literature databanks and citation aid programs


List of essential papers. We consider these as the minimum necessary citations

  1. Neese,F.
     Software update: the ORCA program system, version 5.0
     WIRES Comput. Molec. Sci., 2022 12(1)e1606
     doi.org/10.1002/wcms.1606

List of papers to cite with high priority. The work reported in these papers was absolutely
necessary for this run to complete.
Our perspective: the developers of density functionals and basis sets usually get cited in chemistry papers
Good! But without the algorithms to do something with them, the functionals or basis sets would not do anything.
Hence, in our opinion, the algorithm design and method developments papers are equally worthy of getting cited

  1. Neese,F.
     An improvement of the resolution of the identity approximation for the formation of the Coulomb matrix
     J. Comp. Chem., 2003 24(14)1740-1747
     doi.org/10.1002/jcc.10318
  2. Neese,F.; Wennmohs,F.; Hansen,A.; Becker,U.
     Efficient, approximate and parallel Hartree-Fock and hybrid DFT calculations. A 'chain-of-spheres' algorithm for the Hartree-Fock exchange
     Chem. Phys., 2009 356(1-3)98-109
     doi.org/10.1016/j.chemphys.2008.10.036
  3. Helmich-Paris,B.; de Souza,B.; Neese,F.; Izsák,R.
     An improved chain of spheres for exchange algorithm
     J. Chem. Phys., 2021 155 104109
     doi.org/doi: 10.1063/5.0058766.
  4. Neese,F.
     The SHARK Integral Generation and Digestion System
     J. Comp. Chem., 2022  1-16
     doi.org/10.1002/jcc.26942
  5. Lehtola,S.; Steigemann,C.; Oliveira,M.; Marques,M.
     Recent developments in Libxc - A comprehensive library of functionals for density functional theory
     Software X, 2018 7 
     doi.org/10.1016/j.softx.2017.11.002
  6. Grimme,S.; Antony,J.; Ehrlich,S.; Krieg,H.
     A consistent and accurate ab initio parametrization of density functional dispersion correction (DFT-D) for the 94 elements H-Pu
     J. Chem. Phys., 2010 132 154104-XXXX
     doi.org/10.1063/1.3382344
  7. Grimme,S.; Ehrlich,S.; Goerigk,L.
     Effect of the damping function in dispersion corrected density functional theory
     J. Comput. Chem., 2011 32(7)1456-1465
     doi.org/10.1002/jcc.21759
  8. Bursch,M.; Neugebauer,H.; Ehlert,S.; Grimme,S.
     Dispersion corrected r2SCAN based global hybrid functionals: r2SCANh, r2SCAN0, and r2SCAN50
     J. Phys. Chem., 2022 156(13)134105
     doi.org/10.1063/5.0086040

List of suggested additional citations. These are papers that are important in the 'surrounding' of 
of this run, or papers that preceded the highly important papers. If you like your results we are grateful for a citation.

  1. Izsak,R.; Neese,F.
     An overlap fitted chain of spheres exchange method
     J. Chem. Phys., 2011 135 144105
     doi.org/10.1063/1.3646921
  2. Izsak,R.; Hansen,A.; Neese,F.
     The resolution of identity and chain of spheres approximations for the LPNO-CCSD singles Fock term
     Molec. Phys., 2012 110 2413-2417
     doi.org/10.1080/00268976.2012.687466
  3. Neese,F.
     The ORCA program system
     WIRES Comput. Molec. Sci., 2012 2(1)73-78
     doi.org/10.1002/wcms.81
  4. Izsak,R.; Neese,F.; Klopper,W.
     Robust fitting techniques in the chain of spheres approximation to the Fock exchange: The role of the complementary space
     J. Chem. Phys., 2013 139 
     doi.org/10.1063/1.4819264
  5. Neese,F.
     Software update: the ORCA program system, version 4.0
     WIRES Comput. Molec. Sci., 2018 8(1)1-6
     doi.org/10.1002/wcms.1327
  6. Neese,F.; Wennmohs,F.; Becker,U.; Riplinger,C.
     The ORCA quantum chemistry program package
     J. Chem. Phys., 2020 152 Art. No. L224108
     doi.org/10.1063/5.0004608
  7. Wittmann,L.; Neugebauer,H.; Grimme,S.; Bursch,M.
     Dispersion-corrected r2SCAN based double-hybrid functionals
     J. Chem. Phys., 2023 159(22)224103
     doi.org/10.1063/5.0174988

List of optional additional citations

  1. Neese,F.
     Approximate second-order SCF convergence for spin unrestricted wavefunctions
     Chem. Phys. Lett., 2000 325(1-3)93-98
     doi.org/10.1016/s0009-2614(00)00662-x

Timings for individual modules:

Sum of individual times          ...      199.572 sec (=   3.326 min)
Startup calculation              ...       10.307 sec (=   0.172 min)   5.2 %
SCF iterations                   ...      186.977 sec (=   3.116 min)  93.7 %
Property calculations            ...        2.287 sec (=   0.038 min)   1.1 %
                             ****ORCA TERMINATED NORMALLY****
TOTAL RUN TIME: 0 days 0 hours 3 minutes 22 seconds 985 msec
