
                                 *****************
                                 * O   R   C   A *
                                 *****************

                                            #,                                       
                                            ###                                      
                                            ####                                     
                                            #####                                    
                                            ######                                   
                                           ########,                                 
                                     ,,################,,,,,                         
                               ,,#################################,,                 
                          ,,##########################################,,             
                       ,#########################################, ''#####,          
                    ,#############################################,,   '####,        
                  ,##################################################,,,,####,       
                ,###########''''           ''''###############################       
              ,#####''   ,,,,##########,,,,          '''####'''          '####       
            ,##' ,,,,###########################,,,                        '##       
           ' ,,###''''                  '''############,,,                           
         ,,##''                                '''############,,,,        ,,,,,,###''
      ,#''                                            '''#######################'''  
     '                                                          ''''####''''         
             ,#######,   #######,   ,#######,      ##                                
            ,#'     '#,  ##    ##  ,#'     '#,    #''#        ,####,   ,####,        
            ##       ##  ##   ,#'  ##            #'  '#       #'       #'  '#        
            ##       ##  #######   ##           ,######,      #####,   #    #        
            '#,     ,#'  ##    ##  '#,     ,#' ,#      #,     #,   #   #,  ,#        
             '#######'   ##     ##  '#######'  #'      '#     '####' # '####'        



                #########################################################
                #                        -***-                          #
                #          Department of theory and spectroscopy        #
                #                                                       #
                #                      Frank Neese                      #
                #                                                       #
                #     Directorship, Architecture, Infrastructure        #
                #                    SHARK, DRIVERS                     #
                #        Core code/Algorithms in most modules           #
                #                                                       #
                #        Max Planck Institute fuer Kohlenforschung      #
                #                Kaiser Wilhelm Platz 1                 #
                #                 D-45470 Muelheim/Ruhr                 #
                #                      Germany                          #
                #                                                       #
                #                  All rights reserved                  #
                #                        -***-                          #
                #########################################################


                         Program Version 6.0.0  -   RELEASE  -


 With contributions from (in alphabetic order):
   Daniel Aravena         : Magnetic Suceptibility
   Michael Atanasov       : Ab Initio Ligand Field Theory (pilot matlab implementation)
   Alexander A. Auer      : GIAO ZORA, VPT2 properties, NMR spectrum
   Ute Becker             : All parallelization in ORCA, NUMFREQ, NUMCALC
   Giovanni Bistoni       : ED, misc. LED, open-shell LED, HFLD
   Martin Brehm           : Molecular dynamics
   Dmytro Bykov           : pre 5.0 version of the SCF Hessian
   Marcos Casanova-Páez   : Triplet and SCS-CIS(D). UHF-(DLPNO)-IP/EA/STEOM-CCSD. UHF-CVS-IP/STEOM-CCSD
   Vijay G. Chilkuri      : MRCI spin determinant printing, contributions to CSF-ICE
   Pauline Colinet        : FMM embedding
   Dipayan Datta          : RHF DLPNO-CCSD density
   Achintya Kumar Dutta   : EOM-CC, STEOM-CC
   Nicolas Foglia         : Exact transition moments, OPA infrastructure, MCD improvements
   Dmitry Ganyushin       : Spin-Orbit,Spin-Spin,Magnetic field MRCI
   Miquel Garcia          : C-PCM and meta-GGA Hessian, CCSD/C-PCM, Gaussian charge scheme
   Tiago L. C. Gouveia    : GS-ROHF, GS-ROCIS
   Yang Guo               : DLPNO-NEVPT2, F12-NEVPT2, CIM, IAO-localization
   Andreas Hansen         : Spin unrestricted coupled pair/coupled cluster methods
   Ingolf Harden          : AUTO-CI MPn and infrastructure 
   Benjamin Helmich-Paris : MC-RPA, TRAH-(SCF,CASSCF), AVAS, COSX integrals, SCF dyn. polar.
   Lee Huntington         : MR-EOM, pCC
   Robert Izsak           : Overlap fitted RIJCOSX, COSX-SCS-MP3, EOM
   Riya Kayal             : Wick's Theorem for AUTO-CI, AUTO-CI UHF-CCSDT
   Emily Kempfer          : AUTO-CI, RHF CISDT and CCSDT
   Christian Kollmar      : KDIIS, OOCD, Brueckner-CCSD(T), CCSD density, CASPT2, CASPT2-K, improved NEVPT2
   Axel Koslowski         : Symmetry handling
   Simone Kossmann        : Meta GGA functionals, TD-DFT gradient, OOMP2, (MP2 Hessian; deprecated post 5.0)
   Lucas Lang             : DCDCAS
   Marvin Lechner         : AUTO-CI (C++ implementation), FIC-MRCC
   Spencer Leger          : CASSCF response
   Dagmar Lenk            : GEPOL surface, SMD, ORCA-2-JSON
   Dimitrios Liakos       : Extrapolation schemes; Compound Job, initial MDCI parallelization
   Dimitrios Manganas     : Further ROCIS development; embedding schemes. LFT, Crystal Embedding
   Dimitrios Pantazis     : SARC Basis sets
   Anastasios Papadopoulos: AUTO-CI, single reference methods and gradients
   Taras Petrenko         : pre 6.0 DFT Hessian and TD-DFT gradient, (ASA, deprecated), ECA, 1-Electron XAS/XES, NRVS
   Peter Pinski           : DLPNO-MP2, DLPNO-MP2 Gradient
   Christoph Reimann      : Effective Core Potentials
   Marius Retegan         : Local ZFS, SOC
   Christoph Riplinger    : Optimizer, TS searches, QM/MM, DLPNO-CCSD(T), (RO)-DLPNO pert. Triples
   Michael Roemelt        : Original ROCIS implementation
   Masaaki Saitow         : Open-shell DLPNO-CCSD energy and density
   Barbara Sandhoefer     : DKH picture change effects
   Kantharuban Sivalingam : CASSCF convergence/infrastructure, NEVPT2 and variants, FIC-MRCI
   Bernardo de Souza      : ESD, SOC TD-DFT
   Georgi Stoychev        : AutoAux, RI-MP2 NMR, DLPNO-MP2 response, X2C
   Van Anh Tran           : RI-MP2 g-tensors
   Willem Van den Heuvel  : Paramagnetic NMR
   Zikuan Wang            : NOTCH, Electric field optimization 
   Frank Wennmohs         : Technical directorship and infrastructure
   Hang Xu                : AUTO-CI-Response properties 


 We gratefully acknowledge several colleagues who have allowed us to
 interface, adapt or use parts of their codes:
   Stefan Grimme, W. Hujo, H. Kruse, P. Pracht,  : VdW corrections, initial TS optimization,
                  C. Bannwarth, S. Ehlert,         DFT functionals, gCP, sTDA/sTD-DF
                  L. Wittmann, M. Mueller
   Ed Valeev, F. Pavosevic, A. Kumar             : LibInt (2-el integral package), F12 methods
   Garnet Chan, S. Sharma, J. Yang, R. Olivares  : DMRG
   Ulf Ekstrom                                   : XCFun DFT Library
   Mihaly Kallay                                 : mrcc  (arbitrary order and MRCC methods)
   Frank Weinhold                                : gennbo (NPA and NBO analysis)
   Simon Mueller                                 : openCOSMO-RS
   Christopher J. Cramer and Donald G. Truhlar   : smd solvation model
   Lars Goerigk                                  : TD-DFT with DH, B97 family of functionals
   V. Asgeirsson, H. Jonsson                     : NEB implementation
   FAccTs GmbH                                   : IRC, NEB, NEB-TS, DLPNO-Multilevel, CI-OPT
                                                   MM, QMMM, 2- and 3-layer-ONIOM, Crystal-QMMM,
                                                   LR-CPCM, SF, NACMEs, symmetry and pop. for TD-DFT,
                                                   nearIR, NL-DFT gradient (VV10), updates on ESD,
                                                   ML-optimized integration grids, MBIS, APM,
                                                   GOAT, DOCKER, SOLVATOR, interface openCOSMO-RS
   S Lehtola, MJT Oliveira, MAL Marques          : LibXC Library
   Liviu Ungur et al                             : ANISO software


 Your calculation uses the libint2 library for the computation of 2-el integrals
 For citations please refer to: http://libint.valeyev.net

 Your ORCA version has been built with support for libXC version: 6.2.2
 For citations please refer to: https://libxc.gitlab.io

 This ORCA versions uses:
   CBLAS   interface :  Fast vector & matrix operations
   LAPACKE interface :  Fast linear algebra routines
   SCALAPACK package :  Parallel linear algebra routines
   Shared memory     :  Shared parallel matrices
   BLAS/LAPACK       :  OpenBLAS 0.3.27  USE64BITINT DYNAMIC_ARCH NO_AFFINITY Sandybridge SINGLE_THREADED
        Core in use  :  Sandybridge
   Copyright (c) 2011-2014, The OpenBLAS Project


NOTE: MaxCore=3500 MB was set to SCF,MP2,MDCI,CIPSI,MRCI and CIS
      => If you want to overwrite this, your respective input block should be placed after the MaxCore statement
Your calculation utilizes the atom-pairwise dispersion correction
with the Becke-Johnson damping scheme (D3BJ)


Warning: RI is on but no J-basis has been assigned. Assigning Def2/J (nothing to worry about!)
================================================================================

cite the ECPs for Pd [Def2-ECP] as follows:
Ce-Yb(ecp-28): M. Dolg, H. Stoll, H.Preuss, J. Chem. Phys., 1989, 90, 1730-1734.
Y-Cd(ecp-28), Hf-Hg(ecp-46): D. Andrae,U. Haeussermann, M. Dolg, H. Stoll, H. Preuss, Theor. Chim. Acta, 1990, 77, 123-141.
In-Sb(ecp-28), Tl-Bi(ecp-46): B. Metz, H. Stoll, M. Dolg, J. Chem. Phys., 2000, 113, 2563-2569.
Te-Xe(ecp-28), Po-Rn(ecp-46): K. A. Peterson, D. Figgen, E. Goll, H. Stoll, M. Dolg, J. Chem. Phys., 2003, 119, 11113-11123.
Rb(ecp-28), Cs(ecp-46): T. Leininger, A. Nicklass, W. Kuechle, H. Stoll, M. Dolg, A. Bergner, Chem. Phys. Lett., 1996, 255, 274-280.
Sr(ecp-28), Ba(ecp-46): M. Kaupp, P. V. Schleyer, H. Stoll and H. Preuss, J. Chem. Phys., 1991, 94, 1360-1366.
La(ecp-46): M. Dolg, H. Stoll, A. Savin, H. Preuss, Theor. Chim. Acta, 1989, 75, 173-194.
Lu(ecp-28): X. Cao, M. Dolg, J. Chem. Phys., 2001, 115, 7348-7355.

ECP parameters for Pd [Def2-ECP] have been obtained from:
TURBOMOLE (7.0.2)

----- Orbital basis set information -----
Your calculation utilizes the basis: def2-TZVP
   F. Weigend and R. Ahlrichs, Phys. Chem. Chem. Phys. 7, 3297 (2005).

----- AuxJ basis set information -----
Your calculation utilizes the auxiliary basis: def2/J
   F. Weigend, Phys. Chem. Chem. Phys. 8, 1057 (2006).

================================================================================
                                        WARNINGS
                       Please study these warnings very carefully!
================================================================================

Using LibXC functional ID 497 : Re-regularized SCAN exchange by Furness et al
[ 1]  J. W. Furness, A. D. Kaplan, J. Ning, J. P. Perdew, and J. Sun.,  J. Phys. Chem. Lett. 11, 8208-8215 (2020)
[ 2]  J. W. Furness, A. D. Kaplan, J. Ning, J. P. Perdew, and J. Sun.,  J. Phys. Chem. Lett. 11, 9248-9248 (2020)
Using LibXC functional ID 498 : Re-regularized SCAN correlation by Furness et al
[ 1]  J. W. Furness, A. D. Kaplan, J. Ning, J. P. Perdew, and J. Sun.,  J. Phys. Chem. Lett. 11, 8208-8215 (2020)
[ 2]  J. W. Furness, A. D. Kaplan, J. Ning, J. P. Perdew, and J. Sun.,  J. Phys. Chem. Lett. 11, 9248-9248 (2020)
Using LibXC functional ID 497 : Re-regularized SCAN exchange by Furness et al
[ 1]  J. W. Furness, A. D. Kaplan, J. Ning, J. P. Perdew, and J. Sun.,  J. Phys. Chem. Lett. 11, 8208-8215 (2020)
[ 2]  J. W. Furness, A. D. Kaplan, J. Ning, J. P. Perdew, and J. Sun.,  J. Phys. Chem. Lett. 11, 9248-9248 (2020)
Using LibXC functional ID 498 : Re-regularized SCAN correlation by Furness et al
[ 1]  J. W. Furness, A. D. Kaplan, J. Ning, J. P. Perdew, and J. Sun.,  J. Phys. Chem. Lett. 11, 8208-8215 (2020)
[ 2]  J. W. Furness, A. D. Kaplan, J. Ning, J. P. Perdew, and J. Sun.,  J. Phys. Chem. Lett. 11, 9248-9248 (2020)

================================================================================
                                       INPUT FILE
================================================================================
NAME = CS_PdOAc_003_sp_02.inp
|  1> !r2SCANh def2-TZVP d3 TightSCF SlowConv RIJCOSX defgrid2
|  2> 
|  3> %pal
|  4> nprocs 16
|  5> end
|  6> 
|  7> %scf
|  8> MaxIter 1500
|  9> end
| 10> 
| 11> %maxcore 3500
| 12> 
| 13>  
| 14> 
| 15> * xyz -2 1
| 16>   Pd         -0.58859675474001      1.79069386988636      0.12525051881718
| 17>   O          -0.56312094691235      1.91643518477727     -1.91576266457436
| 18>   O           1.23773995991805      0.62626629361198     -2.35413883147574
| 19>   C           0.23646665555799      1.30841383567401     -2.66710874994333
| 20>   C          -0.02550837097319      1.44069674359657     -4.15587262637452
| 21>   H          -1.06674245939244      1.74180494896657     -4.34713597427350
| 22>   H           0.65379799036240      2.21452114823411     -4.55485166974199
| 23>   H           0.20918360744538      0.49280171799062     -4.66591205188907
| 24>   O          -0.29964826462258      3.77656776653293      0.21229542481214
| 25>   C          -1.29484101105228      4.58780479355271      0.15445475105350
| 26>   O          -2.48079441703085      4.31989642827978      0.03588215814912
| 27>   C          -0.83021832242902      6.04307906777114      0.25897333100322
| 28>   H          -0.08123947616209      6.25515935032835     -0.52325769893691
| 29>   H          -0.33359233772107      6.20329427569995      1.23180401677016
| 30>   H          -1.68905068599482      6.72621418918916      0.15897454019075
| 31>   O           3.44559011185834      2.00815674577063     -1.35551587102128
| 32>   Pd          2.25811503585100      0.60878190020572     -0.55809603411925
| 33>   O           4.51631426078922      3.93251528911954     -1.44753792406341
| 34>   C           3.73783441960455      3.17895243316367     -0.87536723793387
| 35>   H           1.97092402956651      3.71472004404809      0.26370166685263
| 36>   H           3.19201931924132      2.81680309631642      1.18524755967677
| 37>   C           3.05953325431406      3.59603297706349      0.41651102705983
| 38>   H           3.48564226500261      4.55481850360381      0.75607169673751
| 39>   O           1.17857294666871     -1.00974837703236      0.09728951430900
| 40>   C          -0.06568877503068     -1.10507134606857      0.18480944075761
| 41>   O          -0.92971201872185     -0.21240831522995     -0.02163213779956
| 42>   C          -0.61136353768528     -2.45208603241951      0.59724750560615
| 43>   H          -1.56722528777243     -2.65293522994513      0.08704433559233
| 44>   H           0.11862361036096     -3.25261574486518      0.40180365427404
| 45>   H          -0.79925876993274     -2.37024642628049      1.68135817694909
| 46>   O          -0.73939001544079      1.87105904457396      2.13434343056366
| 47>   C          -0.63541941199753      0.93778843558271      3.00819351903202
| 48>   O          -0.49203281331882     -0.26569638190006      2.84627546355495
| 49>   C          -0.68587444820057      1.50836658829373      4.43087250429646
| 50>   H          -1.51697420057274      2.22673524825013      4.53232097543007
| 51>   H          -0.78854077426807      0.69240863048125      5.16465466824389
| 52>   H           0.25114074900571      2.05935015995783      4.62695687727219
| 53>   O           3.30906709905053      0.56732564307542      1.15221593376544
| 54>   C           4.28950705775774     -0.25613003748045      1.28657995816729
| 55>   O           4.71437635957796     -1.06211865508199      0.47517533141923
| 56>   C           4.94107320973044     -0.11815076399701      2.66528150570845
| 57>   H           5.38497351128896      0.88825821148745      2.76265988277769
| 58>   H           4.17672043179701     -0.21724854339394      3.45471460204888
| 59>   H           5.72461305022212     -0.88215029639157      2.79440139825553
| 60> *
| 61> 
| 62>                          ****END OF INPUT****
================================================================================

                       ****************************
                       * Single Point Calculation *
                       ****************************

---------------------------------
CARTESIAN COORDINATES (ANGSTROEM)
---------------------------------
  Pd    -0.588597    1.790694    0.125251
  O     -0.563121    1.916435   -1.915763
  O      1.237740    0.626266   -2.354139
  C      0.236467    1.308414   -2.667109
  C     -0.025508    1.440697   -4.155873
  H     -1.066742    1.741805   -4.347136
  H      0.653798    2.214521   -4.554852
  H      0.209184    0.492802   -4.665912
  O     -0.299648    3.776568    0.212295
  C     -1.294841    4.587805    0.154455
  O     -2.480794    4.319896    0.035882
  C     -0.830218    6.043079    0.258973
  H     -0.081239    6.255159   -0.523258
  H     -0.333592    6.203294    1.231804
  H     -1.689051    6.726214    0.158975
  O      3.445590    2.008157   -1.355516
  Pd     2.258115    0.608782   -0.558096
  O      4.516314    3.932515   -1.447538
  C      3.737834    3.178952   -0.875367
  H      1.970924    3.714720    0.263702
  H      3.192019    2.816803    1.185248
  C      3.059533    3.596033    0.416511
  H      3.485642    4.554819    0.756072
  O      1.178573   -1.009748    0.097290
  C     -0.065689   -1.105071    0.184809
  O     -0.929712   -0.212408   -0.021632
  C     -0.611364   -2.452086    0.597248
  H     -1.567225   -2.652935    0.087044
  H      0.118624   -3.252616    0.401804
  H     -0.799259   -2.370246    1.681358
  O     -0.739390    1.871059    2.134343
  C     -0.635419    0.937788    3.008194
  O     -0.492033   -0.265696    2.846275
  C     -0.685874    1.508367    4.430873
  H     -1.516974    2.226735    4.532321
  H     -0.788541    0.692409    5.164655
  H      0.251141    2.059350    4.626957
  O      3.309067    0.567326    1.152216
  C      4.289507   -0.256130    1.286580
  O      4.714376   -1.062119    0.475175
  C      4.941073   -0.118151    2.665282
  H      5.384974    0.888258    2.762660
  H      4.176720   -0.217249    3.454715
  H      5.724613   -0.882150    2.794401

----------------------------
CARTESIAN COORDINATES (A.U.)
----------------------------
  NO LB      ZA    FRAG     MASS         X           Y           Z
   0 Pd   18.0000*   0   106.400   -1.112287    3.383921    0.236689
   1 O     8.0000    0    15.999   -1.064144    3.621538   -3.620267
   2 O     8.0000    0    15.999    2.338990    1.183472   -4.448678
   3 C     6.0000    0    12.011    0.446857    2.472544   -5.040105
   4 C     6.0000    0    12.011   -0.048204    2.722522   -7.853461
   5 H     1.0000    0     1.008   -2.015851    3.291534   -8.214896
   6 H     1.0000    0     1.008    1.235499    4.184838   -8.607422
   7 H     1.0000    0     1.008    0.395300    0.931260   -8.817296
   8 O     8.0000    0    15.999   -0.566253    7.136679    0.401180
   9 C     6.0000    0    12.011   -2.446895    8.669695    0.291877
  10 O     8.0000    0    15.999   -4.688022    8.163421    0.067807
  11 C     6.0000    0    12.011   -1.568885   11.419764    0.489389
  12 H     1.0000    0     1.008   -0.153520   11.820538   -0.988814
  13 H     1.0000    0     1.008   -0.630398   11.722527    2.327772
  14 H     1.0000    0     1.008   -3.191843   12.710703    0.300418
  15 O     8.0000    0    15.999    6.511222    3.794866   -2.561554
  16 Pd   18.0000*   0   106.400    4.267219    1.150431   -1.054649
  17 O     8.0000    0    15.999    8.534597    7.431377   -2.735450
  18 C     6.0000    0    12.011    7.063483    6.007349   -1.654204
  19 H     1.0000    0     1.008    3.724507    7.019804    0.498324
  20 H     1.0000    0     1.008    6.032042    5.322986    2.239793
  21 C     6.0000    0    12.011    5.781680    6.795517    0.787092
  22 H     1.0000    0     1.008    6.586909    8.607360    1.428768
  23 O     8.0000    0    15.999    2.227180   -1.908148    0.183851
  24 C     6.0000    0    12.011   -0.124134   -2.088282    0.349239
  25 O     8.0000    0    15.999   -1.756901   -0.401394   -0.040879
  26 C     6.0000    0    12.011   -1.155310   -4.633771    1.128634
  27 H     1.0000    0     1.008   -2.961627   -5.013321    0.164490
  28 H     1.0000    0     1.008    0.224166   -6.146553    0.759299
  29 H     1.0000    0     1.008   -1.510380   -4.479117    3.177306
  30 O     8.0000    0    15.999   -1.397245    3.535789    4.033325
  31 C     6.0000    0    12.011   -1.200769    1.772163    5.684662
  32 O     8.0000    0    15.999   -0.929807   -0.502093    5.378681
  33 C     6.0000    0    12.011   -1.296115    2.850400    8.373136
  34 H     1.0000    0     1.008   -2.866666    4.207920    8.564845
  35 H     1.0000    0     1.008   -1.490126    1.308463    9.759783
  36 H     1.0000    0     1.008    0.474587    3.891608    8.743681
  37 O     8.0000    0    15.999    6.253231    1.072090    2.177373
  38 C     6.0000    0    12.011    8.105994   -0.484016    2.431284
  39 O     8.0000    0    15.999    8.908880   -2.007113    0.897951
  40 C     6.0000    0    12.011    9.337275   -0.223273    5.036652
  41 H     1.0000    0     1.008   10.176125    1.678565    5.220671
  42 H     1.0000    0     1.008    7.892858   -0.410540    6.528464
  43 H     1.0000    0     1.008   10.817951   -1.667022    5.280653
* core charge reduced due to ECP

--------------------------------
INTERNAL COORDINATES (ANGSTROEM)
--------------------------------
 Pd     0   0   0     0.000000000000     0.00000000     0.00000000
 O      1   0   0     2.045041493426     0.00000000     0.00000000
 O      2   1   0     2.258275766417    99.70318861     0.00000000
 C      3   2   1     1.251328761370    25.71231414   173.65123281
 C      4   3   2     1.517414762687   115.53462256   178.53813247
 H      5   4   3     1.100643560140   110.95711151   160.72493031
 H      5   4   3     1.104285116630   108.02089197   280.28563346
 H      5   4   3     1.101692116647   110.02521523    37.64078688
 O      1   2   3     2.008671993876    88.89235231   117.94145508
 C      9   1   2     1.285246925729   120.70987299    85.71642753
 O     10   9   1     1.221605432668   128.14579199   359.37036056
 C     10   9   1     1.531215722732   111.21449559   179.21981034
 H     12  10   9     1.103554594302   109.88929985    55.58666290
 H     12  10   9     1.103950100643   109.54737362   298.37242404
 H     12  10   9     1.101937557662   110.27387186   177.27663900
 O      3   2   1     2.789528872827   106.17987328   292.60899137
 Pd    16   3   2     2.001056073883    47.66571734    92.95537647
 O     16   3   2     2.204103914227   143.32666057   304.73167910
 C     18  16   3     1.225262067916    30.10497358   100.28599090
 H     19  18  16     2.169446295521   127.64517430   214.72425232
 H     20  19  18     1.773858896325    65.61323877   239.24904380
 C     21  20  19     1.102591320948    36.61453387    38.50596906
 H     22  21  20     1.102787388069   110.69141956   118.87824955
 O     17  16   3     2.052944616336   172.14147883    75.47918268
 C     24  17  16     1.250972996526   127.26043906   228.81702207
 O     25  24  17     1.259365545670   128.09139361   354.88321002
 C     25  24  17     1.510733156179   116.50667507   175.30394379
 H     27  25  24     1.101961596481   110.45203993   214.82378585
 H     27  25  24     1.100875722252   111.12437107   338.63740259
 H     27  25  24     1.103312415934   105.28548292    97.64379879
 O      1   2   3     2.016346075654   173.17854596   157.90484341
 C     31   1   9     1.282738435186   130.07033396   198.37571821
 O     32  31   1     1.222764441453   129.44853626   355.31987452
 C     32  31   1     1.533662490296   111.01390151   174.23677634
 H     34  32  31     1.103209917602   110.63068741    46.75638473
 H     34  32  31     1.102163339779   110.19548851   169.28606693
 H     34  32  31     1.104549436361   108.80525706   289.07787242
 O     17  16   3     2.007831140283    92.48025806   178.12206767
 C     38  17  16     1.287398718938   120.04857977   268.98675397
 O     39  38  17     1.220044689198   128.19568330     0.73471716
 C     39  38  17     1.531141628818   111.12578454   180.20091192
 H     41  39  38     1.104259503912   109.42655503   296.13403622
 H     41  39  38     1.103295133957   109.96094390    53.74331444
 H     41  39  38     1.101953680419   110.21904576   175.52029009

---------------------------
INTERNAL COORDINATES (A.U.)
---------------------------
 Pd     0   0   0     0.000000000000     0.00000000     0.00000000
 O      1   0   0     3.864568355080     0.00000000     0.00000000
 O      2   1   0     4.267522733400    99.70318861     0.00000000
 C      3   2   1     2.364668662488    25.71231414   173.65123281
 C      4   3   2     2.867498333048   115.53462256   178.53813247
 H      5   4   3     2.079914899728   110.95711151   160.72493031
 H      5   4   3     2.086796444196   108.02089197   280.28563346
 H      5   4   3     2.081896384363   110.02521523    37.64078688
 O      1   2   3     3.795839961304    88.89235231   117.94145508
 C      9   1   2     2.428764704091   120.70987299    85.71642753
 O     10   9   1     2.308499711452   128.14579199   359.37036056
 C     10   9   1     2.893578367917   111.21449559   179.21981034
 H     12  10   9     2.085415957062   109.88929985    55.58666290
 H     12  10   9     2.086163355729   109.54737362   298.37242404
 H     12  10   9     2.082360200664   110.27387186   177.27663900
 O      3   2   1     5.271445612310   106.17987328   292.60899137
 Pd    16   3   2     3.781447958258    47.66571734    92.95537647
 O     16   3   2     4.165152768592   143.32666057   304.73167910
 C     18  16   3     2.315409750643    30.10497358   100.28599090
 H     19  18  16     4.099659360784   127.64517430   214.72425232
 H     20  19  18     3.352107514274    65.61323877   239.24904380
 C     21  20  19     2.083595634229    36.61453387    38.50596906
 H     22  21  20     2.083966147394   110.69141956   118.87824955
 O     17  16   3     3.879503092982   172.14147883    75.47918268
 C     24  17  16     2.363996364365   127.26043906   228.81702207
 O     25  24  17     2.379855983813   128.09139361   354.88321002
 C     25  24  17     2.854871926613   116.50667507   175.30394379
 H     27  25  24     2.082405627447   110.45203993   214.82378585
 H     27  25  24     2.080353622540   111.12437107   338.63740259
 H     27  25  24     2.084958306270   105.28548292    97.64379879
 O      1   2   3     3.810341874193   173.17854596   157.90484341
 C     31   1   9     2.424024343956   130.07033396   198.37571821
 O     32  31   1     2.310689920643   129.44853626   355.31987452
 C     32  31   1     2.898202088528   111.01390151   174.23677634
 H     34  32  31     2.084764612494   110.63068741    46.75638473
 H     34  32  31     2.082786867031   110.19548851   169.28606693
 H     34  32  31     2.087295936099   108.80525706   289.07787242
 O     17  16   3     3.794250978293    92.48025806   178.12206767
 C     38  17  16     2.432831003954   120.04857977   268.98675397
 O     39  38  17     2.305550333730   128.19568330     0.73471716
 C     39  38  17     2.893438350712   111.12578454   180.20091192
 H     41  39  38     2.086748043173   109.42655503   296.13403622
 H     41  39  38     2.084925648067   109.96094390    53.74331444
 H     41  39  38     2.082390668258   110.21904576   175.52029009

---------------------
BASIS SET INFORMATION
---------------------
There are 4 groups of distinct atoms

 Group   1 Type Pd  : 7s7p6d1f contracted to 6s4p3d1f pattern {211111/4111/411/1}
 Group   2 Type O   : 11s6p2d1f contracted to 5s3p2d1f pattern {62111/411/11/1}
 Group   3 Type C   : 11s6p2d1f contracted to 5s3p2d1f pattern {62111/411/11/1}
 Group   4 Type H   : 5s1p contracted to 3s1p pattern {311/1}

Atom   0Pd   basis set group =>   1
Atom   1O    basis set group =>   2
Atom   2O    basis set group =>   2
Atom   3C    basis set group =>   3
Atom   4C    basis set group =>   3
Atom   5H    basis set group =>   4
Atom   6H    basis set group =>   4
Atom   7H    basis set group =>   4
Atom   8O    basis set group =>   2
Atom   9C    basis set group =>   3
Atom  10O    basis set group =>   2
Atom  11C    basis set group =>   3
Atom  12H    basis set group =>   4
Atom  13H    basis set group =>   4
Atom  14H    basis set group =>   4
Atom  15O    basis set group =>   2
Atom  16Pd   basis set group =>   1
Atom  17O    basis set group =>   2
Atom  18C    basis set group =>   3
Atom  19H    basis set group =>   4
Atom  20H    basis set group =>   4
Atom  21C    basis set group =>   3
Atom  22H    basis set group =>   4
Atom  23O    basis set group =>   2
Atom  24C    basis set group =>   3
Atom  25O    basis set group =>   2
Atom  26C    basis set group =>   3
Atom  27H    basis set group =>   4
Atom  28H    basis set group =>   4
Atom  29H    basis set group =>   4
Atom  30O    basis set group =>   2
Atom  31C    basis set group =>   3
Atom  32O    basis set group =>   2
Atom  33C    basis set group =>   3
Atom  34H    basis set group =>   4
Atom  35H    basis set group =>   4
Atom  36H    basis set group =>   4
Atom  37O    basis set group =>   2
Atom  38C    basis set group =>   3
Atom  39O    basis set group =>   2
Atom  40C    basis set group =>   3
Atom  41H    basis set group =>   4
Atom  42H    basis set group =>   4
Atom  43H    basis set group =>   4
---------------------------------
AUXILIARY/J BASIS SET INFORMATION
---------------------------------
There are 4 groups of distinct atoms

 Group   1 Type Pd  : 11s5p5d3f3g contracted to 8s5p5d2f3g pattern {41111111/11111/11111/21/111}
 Group   2 Type O   : 12s5p4d2f1g contracted to 6s4p3d1f1g pattern {711111/2111/211/2/1}
 Group   3 Type C   : 12s5p4d2f1g contracted to 6s4p3d1f1g pattern {711111/2111/211/2/1}
 Group   4 Type H   : 5s2p1d contracted to 3s1p1d pattern {311/2/1}

Atom   0Pd   basis set group =>   1
Atom   1O    basis set group =>   2
Atom   2O    basis set group =>   2
Atom   3C    basis set group =>   3
Atom   4C    basis set group =>   3
Atom   5H    basis set group =>   4
Atom   6H    basis set group =>   4
Atom   7H    basis set group =>   4
Atom   8O    basis set group =>   2
Atom   9C    basis set group =>   3
Atom  10O    basis set group =>   2
Atom  11C    basis set group =>   3
Atom  12H    basis set group =>   4
Atom  13H    basis set group =>   4
Atom  14H    basis set group =>   4
Atom  15O    basis set group =>   2
Atom  16Pd   basis set group =>   1
Atom  17O    basis set group =>   2
Atom  18C    basis set group =>   3
Atom  19H    basis set group =>   4
Atom  20H    basis set group =>   4
Atom  21C    basis set group =>   3
Atom  22H    basis set group =>   4
Atom  23O    basis set group =>   2
Atom  24C    basis set group =>   3
Atom  25O    basis set group =>   2
Atom  26C    basis set group =>   3
Atom  27H    basis set group =>   4
Atom  28H    basis set group =>   4
Atom  29H    basis set group =>   4
Atom  30O    basis set group =>   2
Atom  31C    basis set group =>   3
Atom  32O    basis set group =>   2
Atom  33C    basis set group =>   3
Atom  34H    basis set group =>   4
Atom  35H    basis set group =>   4
Atom  36H    basis set group =>   4
Atom  37O    basis set group =>   2
Atom  38C    basis set group =>   3
Atom  39O    basis set group =>   2
Atom  40C    basis set group =>   3
Atom  41H    basis set group =>   4
Atom  42H    basis set group =>   4
Atom  43H    basis set group =>   4
-------------------------
ECP PARAMETER INFORMATION
-------------------------

 Group 1, Type Pd ECP Def2-ECP (replacing 28 core electrons, lmax=3)

Atom   0Pd   ECP group =>   1
Atom  16Pd   ECP group =>   1



           ************************************************************
           *        Program running with 16 parallel MPI-processes    *
           *              working on a common directory               *
           ************************************************************
------------------------------------------------------------------------------
                             ORCA STARTUP CALCULATIONS
                           -- RI-GTO INTEGRALS CHOSEN --
------------------------------------------------------------------------------
------------------------------------------------------------------------------
                   ___                                                        
                  /   \      - P O W E R E D   B Y -                         
                 /     \                                                     
                 |  |  |   _    _      __       _____    __    __             
                 |  |  |  | |  | |    /  \     |  _  \  |  |  /  |          
                  \  \/   | |  | |   /    \    | | | |  |  | /  /          
                 / \  \   | |__| |  /  /\  \   | |_| |  |  |/  /          
                |  |  |   |  __  | /  /__\  \  |    /   |      \           
                |  |  |   | |  | | |   __   |  |    \   |  |\   \          
                \     /   | |  | | |  |  |  |  | |\  \  |  | \   \       
                 \___/    |_|  |_| |__|  |__|  |_| \__\ |__|  \__/        
                                                                              
                      - O R C A' S   B I G   F R I E N D -                    
                                      &                                       
                       - I N T E G R A L  F E E D E R -                       
                                                                              
 v1 FN, 2020, v2 2021, v3 2022-2024                                           
------------------------------------------------------------------------------


----------------------
SHARK INTEGRAL PACKAGE
----------------------

Number of atoms                             ...     44
Number of basis functions                   ...    932
Number of shells                            ...    364
Maximum angular momentum                    ...      3
Integral batch strategy                     ... SHARK/LIBINT Hybrid
RI-J (if used) integral strategy            ... SPLIT-RIJ (Revised 2003 algorithm where possible)
Printlevel                                  ...      1
Contraction scheme used                     ... SEGMENTED contraction
Prescreening option                         ... SCHWARTZ
   Thresh                                   ... 2.500e-11
   Tcut                                     ... 2.500e-12
   Tpresel                                  ... 2.500e-12 
Coulomb Range Separation                    ... NOT USED
Exchange Range Separation                   ... NOT USED
Multipole approximations                    ... NOT USED
Finite Nucleus Model                        ... NOT USED
CABS basis                                  ... NOT available
Auxiliary Coulomb fitting basis             ... AVAILABLE
   # of basis functions in Aux-J            ...   1552
   # of shells in Aux-J                     ...    496
   Maximum angular momentum in Aux-J        ...      4
Auxiliary J/K fitting basis                 ... NOT available
Auxiliary Correlation fitting basis         ... NOT available
Auxiliary 'external' fitting basis          ... NOT available

Checking pre-screening integrals            ... done (  0.1 sec) Dimension = 364
Check shell pair data                       ... done (  0.0 sec)
Shell pair information
Shell pair cut-off parameter TPreSel        ...   2.5e-12
Total number of shell pairs                 ...     66430
Shell pairs after pre-screening             ...     42079
Total number of primitive shell pairs       ...    199373
Primitive shell pairs kept                  ...     80371
          la=0 lb=0:  10535 shell pairs
          la=1 lb=0:  12307 shell pairs
          la=1 lb=1:   3586 shell pairs
          la=2 lb=0:   6076 shell pairs
          la=2 lb=1:   3620 shell pairs
          la=2 lb=2:    928 shell pairs
          la=3 lb=0:   2550 shell pairs
          la=3 lb=1:   1564 shell pairs
          la=3 lb=2:    761 shell pairs
          la=3 lb=3:    152 shell pairs

Calculating one electron integrals          ... done (  0.1 sec)
Calculating ECP integrals                   ... done (  4.1 sec)
Calculating RI/J V-Matrix + Cholesky decomp.... done (  0.2 sec)
Calculating Nuclear repulsion               ... done (  0.0 sec) ENN=   3254.998431094849 Eh

Diagonalization of the overlap matrix:
Smallest eigenvalue                        ... 2.231e-04
Time for diagonalization                   ...    0.352 sec
Threshold for overlap eigenvalues          ... 1.000e-07
Number of eigenvalues below threshold      ... 0
Time for construction of square roots      ...    0.223 sec
Total time needed                          ...    0.652 sec

-------------------
DFT GRID GENERATION
-------------------

General Integration Accuracy     IntAcc      ... 4.388
Radial Grid Type                 RadialGrid  ... OptM3 with GC (2021)
Angular Grid (max. ang.)         AngularGrid ... 4 (Lebedev-302)
Angular grid pruning method      GridPruning ... 4 (adaptive)
Weight generation scheme         WeightScheme... mBecke (2022)
Basis function cutoff            BFCut       ... 1.0000e-11
Integration weight cutoff        WCut        ... 1.0000e-14
Partially contracted basis set               ... off
Rotationally invariant grid construction     ... off
Angular grids for H and He will be reduced by one unit

Total number of grid points                  ...   220819
Total number of batches                      ...     3472
Average number of points per batch           ...       63
Average number of grid points per atom       ...     5019

--------------------
COSX GRID GENERATION
--------------------

GRIDX 1
-------
General Integration Accuracy     IntAcc      ... 3.816
Radial Grid Type                 RadialGrid  ... OptM3 with GC (2021)
Angular Grid (max. ang.)         AngularGrid ... 1 (Lebedev-50)
Angular grid pruning method      GridPruning ... 4 (adaptive)
Weight generation scheme         WeightScheme... mBecke (2022)
Basis function cutoff            BFCut       ... 1.0000e-11
Integration weight cutoff        WCut        ... 1.0000e-14
Partially contracted basis set               ... on
Rotationally invariant grid construction     ... off
Angular grids for H and He will be reduced by one unit

Total number of grid points                  ...    34299
Total number of batches                      ...      294
Average number of points per batch           ...      116
Average number of grid points per atom       ...      780
UseSFitting                                  ... on

GRIDX 2
-------
General Integration Accuracy     IntAcc      ... 4.020
Radial Grid Type                 RadialGrid  ... OptM3 with GC (2021)
Angular Grid (max. ang.)         AngularGrid ... 2 (Lebedev-110)
Angular grid pruning method      GridPruning ... 4 (adaptive)
Weight generation scheme         WeightScheme... mBecke (2022)
Basis function cutoff            BFCut       ... 1.0000e-11
Integration weight cutoff        WCut        ... 1.0000e-14
Partially contracted basis set               ... on
Rotationally invariant grid construction     ... off
Angular grids for H and He will be reduced by one unit

Total number of grid points                  ...    64717
Total number of batches                      ...      525
Average number of points per batch           ...      123
Average number of grid points per atom       ...     1471
UseSFitting                                  ... on

GRIDX 3
-------
General Integration Accuracy     IntAcc      ... 4.338
Radial Grid Type                 RadialGrid  ... OptM3 with GC (2021)
Angular Grid (max. ang.)         AngularGrid ... 3 (Lebedev-194)
Angular grid pruning method      GridPruning ... 4 (adaptive)
Weight generation scheme         WeightScheme... mBecke (2022)
Basis function cutoff            BFCut       ... 1.0000e-11
Integration weight cutoff        WCut        ... 1.0000e-14
Partially contracted basis set               ... on
Rotationally invariant grid construction     ... off
Angular grids for H and He will be reduced by one unit

Total number of grid points                  ...   131524
Total number of batches                      ...     1054
Average number of points per batch           ...      124
Average number of grid points per atom       ...     2989
UseSFitting                                  ... on
Initializing property integral containers    ... done (  0.4 sec)

SHARK setup successfully completed in  13.5 seconds

Maximum memory used throughout the entire STARTUP-calculation: 89.9 MB


           ************************************************************
           *        Program running with 16 parallel MPI-processes    *
           *              working on a common directory               *
           ************************************************************
-------------------------------------------------------------------------------
                                 ORCA GUESS
                   Start orbitals & Density for SCF / CASSCF
-------------------------------------------------------------------------------

------------
SCF SETTINGS
------------
Hamiltonian:
 Density Functional     Method          .... DFT(GTOs)
  Functional kind                       .... Exchange
  Functional name                       .... Re-regularized SCAN exchange by Furness et al
  Functional family                     .... MGGA
  Functional refs                              
    [ 0] J. W. Furness, A. D. Kaplan, J. Ning, J. P. Perdew, and J. Sun.,  J. Phys. Chem. Lett. 11, 8208-8215 (2020), doi: 10.1021/acs.jpclett.0c02405
    [ 1] J. W. Furness, A. D. Kaplan, J. Ning, J. P. Perdew, and J. Sun.,  J. Phys. Chem. Lett. 11, 9248-9248 (2020), doi: 10.1021/acs.jpclett.0c03077
  Functional external parameters        .... 6
    Parameter  0 _c1        =  6.670000e-01 : c1 parameter        
    Parameter  1 _c2        =  8.000000e-01 : c2 parameter        
    Parameter  2 _d         =  1.240000e+00 : d parameter         
    Parameter  3 _k1        =  6.500000e-02 : k1 parameter        
    Parameter  4 _eta       =  1.000000e-03 : eta parameter       
    Parameter  5 _dp2       =  3.610000e-01 : dp2 parameter       
  Functional kind                       .... Correlation
  Functional name                       .... Re-regularized SCAN correlation by Furness et al
  Functional family                     .... MGGA
  Functional refs                              
    [ 0] J. W. Furness, A. D. Kaplan, J. Ning, J. P. Perdew, and J. Sun.,  J. Phys. Chem. Lett. 11, 8208-8215 (2020), doi: 10.1021/acs.jpclett.0c02405
    [ 1] J. W. Furness, A. D. Kaplan, J. Ning, J. P. Perdew, and J. Sun.,  J. Phys. Chem. Lett. 11, 9248-9248 (2020), doi: 10.1021/acs.jpclett.0c03077
  Functional external parameters        .... 1
    Parameter  0 _eta       =  1.000000e-03 : Regularization parameter
 Gradients option       PostSCFGGA      .... off
 Hybrid DFT is turned on
   Fraction HF Exchange ScalHFX         ....  0.100000
   Scaling of DF-GGA-X  ScalDFX         ....  0.900000
   Scaling of DF-GGA-C  ScalDFC         ....  1.000000
   Scaling of DF-LDA-C  ScalLDAC        ....  1.000000
   Perturbative correction              ....  0.000000
   NL short-range parameter             .... 11.900000
 RI-approximation to the Coulomb term is turned on
   Number of AuxJ basis functions       .... 1552
   RIJ-COSX (HFX calculated with COS-X)).... on


General Settings:
 Integral files         IntName         .... CS_PdOAc_003_sp_02
 Hartree-Fock type      HFTyp           .... RHF
 Total Charge           Charge          ....   -2
 Multiplicity           Mult            ....    1
 Number of Electrons    NEL             ....  224
 Basis Dimension        Dim             ....  932
 Nuclear Repulsion      ENuc            ....   3254.9984310948 Eh

Convergence Acceleration:
 AO-DIIS                CNVDIIS         .... on
   Start iteration      DIISMaxIt       ....     0
   Startup error        DIISStart       ....  0.200000
   # of expansion vecs  DIISMaxEq       ....     5
   Bias factor          DIISBfac        ....   1.050
   Max. coefficient     DIISMaxC        ....  10.000
 MO-DIIS                CNVKDIIS        .... off
 Trust-Rad. Augm. Hess. CNVTRAH         .... auto
   Auto Start mean grad. ratio tolernc. ....  1.125000
   Auto Start start iteration           ....    50
   Auto Start num. interpolation iter.  ....    10
   Max. Number of Micro iterations      ....    24
   Max. Number of Macro iterations      .... Maxiter - #DIIS iter
   Number of Davidson start vectors     ....     2
   Converg. threshold    (grad. norm)   ....   1.000e-05
   Grad. Scal. Fac. for Micro threshold ....   0.100
   Minimum threshold for Micro iter.    ....   1.000e-02
   NR start threshold (gradient norm)   ....   1.000e-04
   Initial trust radius                 ....   0.400
   Minimum AH scaling param. (alpha)    ....   1.000
   Maximum AH scaling param. (alpha)    .... 1000.000
   Quad. conv. algorithm                .... NR
   White noise on init. David. guess    .... on
   Maximum white noise                  ....   0.010
   Pseudo random numbers                .... off
   Inactive MOs                         .... canonical
   Orbital update algorithm             .... Taylor
   Preconditioner                       .... Diag
   Full preconditioner red. dimension   ....   250
 SOSCF                  CNVSOSCF        .... on
   Start iteration      SOSCFMaxIt      ....   150
   Startup grad/error   SOSCFStart      ....  0.001000
   Hessian update       SOSCFHessUp     .... L-BFGS
 Level Shifting         CNVShift        .... on
   Level shift para.    LevelShift      ....    0.2500
   Turn off err/grad.   ShiftErr        ....    0.0000
 Zerner damping         CNVZerner       .... off
 Static damping         CNVDamp         .... on
   Fraction old density DampFac         ....    0.8500
   Max. Damping (<1)    DampMax         ....    0.9800
   Min. Damping (>=0)   DampMin         ....    0.0000
   Turn off err/grad.   DampErr         ....    0.0300

SCF Procedure:
 Maximum # iterations   MaxIter         ....  1500
 SCF integral mode      SCFMode         .... Direct
   Integral package                     .... SHARK and LIBINT hybrid scheme
 Reset frequency        DirectResetFreq ....    20
 Integral Threshold     Thresh          ....  2.500e-11 Eh
 Primitive CutOff       TCut            ....  2.500e-12 Eh

Convergence Tolerance:
 Convergence Check Mode ConvCheckMode   .... Total+1el-Energy
 Convergence forced     ConvForced      .... 0
 Energy Change          TolE            ....  1.000e-08 Eh
 1-El. energy change                    ....  1.000e-05 Eh
 Orbital Gradient       TolG            ....  1.000e-05
 Orbital Rotation angle TolX            ....  1.000e-05
 DIIS Error             TolErr          ....  5.000e-07

------------------------------
INITIAL GUESS: MODEL POTENTIAL
------------------------------
Loading Hartree-Fock densities                     ... done
Atomic calculation to generate a density for atom 0 (Pd with ECP)
  Multiplicity assumed   :    3
  Atomic configuration   : 1s2 2s2 2p6 3s2 3p6 4s2 3d10 4p6 5s2 4d8 
  Number of open shells  : 1
  Command: /opt/apps/software/ORCA/6.0.0-gompi-2023b/bin/orca CS_PdOAc_003_sp_02_atom46.inp "" > CS_PdOAc_003_sp_02_atom46.out
Returned from the atomic calculation with res=0
Calculating cut-offs                               ... done
Initializing the effective Hamiltonian             ... done
Setting up the integral package (SHARK)            ... done
Starting the Coulomb interaction                   ... done (   0.9 sec)
Making the grid                                    ... done (   0.7 sec)
Mapping shells                                     ... done
Starting the XC term evaluation                    ... done (   0.3 sec)
  promolecular density results
     # of electrons  =    277.984558225
     EX              =   -441.550653515
     EC              =    -11.126272898
     EX+EC           =   -452.676926413
Transforming the Hamiltonian                       ... done (   0.3 sec)
Diagonalizing the Hamiltonian                      ... done (   0.4 sec)
Back transforming the eigenvectors                 ... done (   0.2 sec)
Now organizing SCF variables                       ... done
                      ------------------
                      INITIAL GUESS DONE (  14.9 sec)
                      ------------------
             **** ENERGY FILE WAS UPDATED (CS_PdOAc_003_sp_02.en.tmp) ****
Finished Guess after  16.5 sec
Maximum memory used throughout the entire GUESS-calculation: 72.2 MB


           ************************************************************
           *        Program running with 16 parallel MPI-processes    *
           *              working on a common directory               *
           ************************************************************

-------------------------------------------------------------------------------------------
                                      ORCA LEAN-SCF
                              memory conserving SCF solver
-------------------------------------------------------------------------------------------

----------------------------------------D-I-I-S--------------------------------------------
Iteration    Energy (Eh)           Delta-E    RMSDP     MaxDP     DIISErr   Damp  Time(sec)
-------------------------------------------------------------------------------------------
               ***  Starting incremental Fock matrix formation  ***
    1    -1625.7213758724710715     0.00e+00  5.86e-04  7.77e-02  4.66e-01  0.850  15.9
Warning: op=0 Small HOMO/LUMO gap (   0.100) - skipping pre-diagonalization
         Will do a full diagonalization
    2    -1626.0274149109955033    -3.06e-01  8.50e-04  1.78e-01  3.94e-01  0.850  11.3
                               ***Turning on AO-DIIS***
    3    -1626.2153482173926022    -1.88e-01  4.37e-04  7.58e-02  3.32e-01  0.850   9.8
    4    -1626.3322773105583110    -1.17e-01  2.38e-04  2.53e-02  2.80e-01  0.850  10.4
    5    -1626.4155956821068685    -8.33e-02  1.52e-04  9.41e-03  2.38e-01  0.850   9.7
    6    -1626.4809984392950355    -6.54e-02  1.13e-04  7.81e-03  2.02e-01  0.850   9.1
    7    -1626.5347252588790070    -5.37e-02  9.40e-05  6.68e-03  1.72e-01  0.850   9.1
    8    -1626.5794257611623834    -4.47e-02  7.98e-05  5.99e-03  1.46e-01  0.850  10.1
    9    -1626.6163484979215355    -3.69e-02  6.77e-05  5.20e-03  1.24e-01  0.850   8.7
   10    -1626.6468863583322673    -3.05e-02  5.70e-05  4.63e-03  1.05e-01  0.850   8.7
   11    -1626.6722734960139860    -2.54e-02  4.79e-05  4.28e-03  8.96e-02  0.850   9.1
   12    -1626.6934746226652351    -2.12e-02  4.04e-05  3.88e-03  7.61e-02  0.850   9.8
   13    -1626.7112237188748622    -1.77e-02  3.42e-05  3.48e-03  6.47e-02  0.850   9.3
   14    -1626.7261088300974734    -1.49e-02  2.90e-05  3.10e-03  5.50e-02  0.850   8.3
   15    -1626.7386198516987861    -1.25e-02  2.46e-05  2.74e-03  4.67e-02  0.850   8.2
   16    -1626.7491589265164293    -1.05e-02  2.08e-05  2.41e-03  3.97e-02  0.850   9.1
   17    -1626.7580519609473413    -8.89e-03  1.76e-05  2.12e-03  3.37e-02  0.850   8.0
   18    -1626.7655647350820800    -7.51e-03  1.49e-05  1.86e-03  2.86e-02  0.850   9.0
   19    -1626.7719173142140789    -6.35e-03  8.46e-05  1.09e-02  2.43e-02  0.000   9.6
                              *** Initializing SOSCF ***
---------------------------------------S-O-S-C-F--------------------------------------
Iteration    Energy (Eh)           Delta-E    RMSDP     MaxDP     MaxGrad    Time(sec)
--------------------------------------------------------------------------------------
   20    -1626.8073928654002884    -3.55e-02  5.66e-06  1.06e-03  5.25e-04     9.7
               *** Restarting incremental Fock matrix formation ***
   21    -1626.8073651208624142     2.77e-05  4.20e-06  5.09e-04  3.16e-05    15.6
   22    -1626.8073645080221468     6.13e-07  1.93e-06  1.53e-04  7.62e-05     9.4
   23    -1626.8073653951187225    -8.87e-07  8.50e-07  8.28e-05  1.47e-05     8.2
   24    -1626.8073653109231600     8.42e-08  5.66e-07  4.88e-05  2.89e-05     9.4
   25    -1626.8073654320041896    -1.21e-07  1.73e-07  1.84e-05  2.50e-06     7.6
   26    -1626.8073654043282659     2.77e-08  1.13e-07  1.06e-05  6.29e-06     6.5
   27    -1626.8073653963119796     8.02e-09  8.89e-08  1.82e-05  3.68e-07     7.4
                 **** Energy Check signals convergence ****

               *****************************************************
               *                     SUCCESS                       *
               *           SCF CONVERGED AFTER  27 CYCLES          *
               *****************************************************

Recomputing exchange energy using gridx3       ... done (   16.844 sec)
Old exchange energy                            :    -19.148975687 Eh
New exchange energy                            :    -19.148982284 Eh
Exchange energy change after final integration :     -0.000006596 Eh
Total energy after final integration           :  -1626.807371993 Eh
             **** ENERGY FILE WAS UPDATED (CS_PdOAc_003_sp_02.en.tmp) ****

----------------
TOTAL SCF ENERGY
----------------

Total Energy       :      -1626.80737199272630 Eh          -44267.67912 eV

Components:
Nuclear Repulsion  :       3254.99843109484937 Eh           88573.01027 eV
Electronic Energy  :      -4881.80579649116225 Eh         -132840.68921 eV
One Electron Energy:      -8872.12187767156865 Eh         -241422.70998 eV
Two Electron Energy:       3990.31608118040685 Eh          108582.02077 eV

Virial components:
Potential Energy   :      -3088.14474852985722 Eh          -84032.69075 eV
Kinetic Energy     :       1461.33737653713092 Eh           39765.01163 eV
Virial Ratio       :          2.11323189163046

DFT components:
N(Alpha)           :      111.999937381806 electrons
N(Beta)            :      111.999937381806 electrons
N(Total)           :      223.999874763612 electrons
E(X)               :     -173.573448645358 Eh       
E(C)               :       -7.681998241848 Eh       
E(XC)              :     -181.255446887206 Eh       

---------------
SCF CONVERGENCE
---------------

  Last Energy change         ...   -8.0163e-09  Tolerance :   1.0000e-08
  Last MAX-Density change    ...    1.8207e-05  Tolerance :   1.0000e-07
  Last RMS-Density change    ...    8.8851e-08  Tolerance :   5.0000e-09
  Last DIIS Error            ...    5.2465e-04  Tolerance :   5.0000e-07
  Last Orbital Gradient      ...    3.6763e-07  Tolerance :   1.0000e-05
  Last Orbital Rotation      ...    1.4673e-06  Tolerance :   1.0000e-05


----------------
ORBITAL ENERGIES
----------------

  NO   OCC          E(Eh)            E(eV) 
   0   2.0000     -18.910137      -514.5710 
   1   2.0000     -18.905367      -514.4412 
   2   2.0000     -18.899759      -514.2886 
   3   2.0000     -18.898672      -514.2590 
   4   2.0000     -18.885782      -513.9082 
   5   2.0000     -18.884979      -513.8864 
   6   2.0000     -18.883626      -513.8496 
   7   2.0000     -18.870592      -513.4949 
   8   2.0000     -18.852220      -512.9950 
   9   2.0000     -18.851317      -512.9704 
  10   2.0000     -18.848289      -512.8880 
  11   2.0000     -18.833490      -512.4853 
  12   2.0000     -10.071540      -274.0605 
  13   2.0000     -10.062422      -273.8124 
  14   2.0000     -10.040456      -273.2147 
  15   2.0000     -10.040026      -273.2030 
  16   2.0000     -10.036326      -273.1023 
  17   2.0000     -10.020115      -272.6612 
  18   2.0000      -9.974437      -271.4182 
  19   2.0000      -9.956910      -270.9413 
  20   2.0000      -9.956577      -270.9322 
  21   2.0000      -9.955630      -270.9065 
  22   2.0000      -9.953900      -270.8594 
  23   2.0000      -9.911828      -269.7145 
  24   2.0000      -3.267244       -88.9062 
  25   2.0000      -3.261443       -88.7484 
  26   2.0000      -1.949612       -53.0516 
  27   2.0000      -1.948649       -53.0254 
  28   2.0000      -1.943717       -52.8912 
  29   2.0000      -1.942820       -52.8668 
  30   2.0000      -1.908397       -51.9301 
  31   2.0000      -1.902923       -51.7812 
  32   2.0000      -0.876542       -23.8519 
  33   2.0000      -0.866349       -23.5746 
  34   2.0000      -0.840666       -22.8757 
  35   2.0000      -0.838072       -22.8051 
  36   2.0000      -0.836950       -22.7746 
  37   2.0000      -0.820197       -22.3187 
  38   2.0000      -0.790744       -21.5172 
  39   2.0000      -0.780627       -21.2419 
  40   2.0000      -0.755000       -20.5446 
  41   2.0000      -0.753208       -20.4958 
  42   2.0000      -0.750705       -20.4277 
  43   2.0000      -0.728261       -19.8170 
  44   2.0000      -0.544183       -14.8080 
  45   2.0000      -0.530264       -14.4292 
  46   2.0000      -0.521266       -14.1844 
  47   2.0000      -0.519356       -14.1324 
  48   2.0000      -0.518400       -14.1064 
  49   2.0000      -0.486310       -13.2332 
  50   2.0000      -0.350253        -9.5309 
  51   2.0000      -0.339473        -9.2375 
  52   2.0000      -0.321871        -8.7586 
  53   2.0000      -0.315220        -8.5776 
  54   2.0000      -0.313883        -8.5412 
  55   2.0000      -0.295284        -8.0351 
  56   2.0000      -0.283928        -7.7261 
  57   2.0000      -0.275590        -7.4992 
  58   2.0000      -0.260714        -7.0944 
  59   2.0000      -0.257947        -7.0191 
  60   2.0000      -0.251909        -6.8548 
  61   2.0000      -0.246402        -6.7049 
  62   2.0000      -0.239240        -6.5101 
  63   2.0000      -0.236648        -6.4395 
  64   2.0000      -0.234624        -6.3844 
  65   2.0000      -0.231280        -6.2935 
  66   2.0000      -0.229978        -6.2580 
  67   2.0000      -0.228508        -6.2180 
  68   2.0000      -0.226173        -6.1545 
  69   2.0000      -0.222086        -6.0433 
  70   2.0000      -0.221095        -6.0163 
  71   2.0000      -0.218918        -5.9571 
  72   2.0000      -0.209507        -5.7010 
  73   2.0000      -0.199953        -5.4410 
  74   2.0000      -0.197285        -5.3684 
  75   2.0000      -0.195623        -5.3232 
  76   2.0000      -0.185485        -5.0473 
  77   2.0000      -0.184392        -5.0176 
  78   2.0000      -0.183472        -4.9925 
  79   2.0000      -0.179820        -4.8931 
  80   2.0000      -0.165206        -4.4955 
  81   2.0000      -0.156634        -4.2622 
  82   2.0000      -0.154569        -4.2060 
  83   2.0000      -0.153753        -4.1838 
  84   2.0000      -0.147301        -4.0083 
  85   2.0000      -0.126860        -3.4520 
  86   2.0000      -0.123692        -3.3658 
  87   2.0000      -0.115725        -3.1490 
  88   2.0000      -0.112145        -3.0516 
  89   2.0000      -0.099330        -2.7029 
  90   2.0000      -0.092129        -2.5070 
  91   2.0000      -0.088424        -2.4061 
  92   2.0000      -0.077999        -2.1225 
  93   2.0000      -0.070519        -1.9189 
  94   2.0000      -0.065955        -1.7947 
  95   2.0000      -0.064531        -1.7560 
  96   2.0000      -0.061751        -1.6803 
  97   2.0000      -0.059660        -1.6234 
  98   2.0000      -0.057277        -1.5586 
  99   2.0000      -0.039632        -1.0784 
 100   2.0000      -0.031221        -0.8496 
 101   2.0000      -0.028009        -0.7622 
 102   2.0000      -0.026849        -0.7306 
 103   2.0000      -0.024381        -0.6634 
 104   2.0000      -0.019748        -0.5374 
 105   2.0000      -0.016194        -0.4407 
 106   2.0000      -0.010846        -0.2951 
 107   2.0000      -0.005389        -0.1467 
 108   2.0000      -0.004899        -0.1333 
 109   2.0000      -0.001930        -0.0525 
 110   2.0000       0.000782         0.0213 
 111   2.0000       0.025161         0.6847 
 112   0.0000       0.131569         3.5802 
 113   0.0000       0.142369         3.8740 
 114   0.0000       0.209813         5.7093 
 115   0.0000       0.220874         6.0103 
 116   0.0000       0.227113         6.1800 
 117   0.0000       0.232048         6.3143 
 118   0.0000       0.237043         6.4503 
 119   0.0000       0.239404         6.5145 
 120   0.0000       0.240230         6.5370 
 121   0.0000       0.244168         6.6442 
 122   0.0000       0.252239         6.8638 
*Only the first 10 virtual orbitals were printed.

                    ********************************
                    * MULLIKEN POPULATION ANALYSIS *
                    ********************************

-----------------------
MULLIKEN ATOMIC CHARGES
-----------------------
   0 Pd:    0.538269
   1 O :   -0.446992
   2 O :   -0.457622
   3 C :    0.547241
   4 C :   -0.355250
   5 H :    0.106048
   6 H :    0.120002
   7 H :    0.099686
   8 O :   -0.505734
   9 C :    0.491876
  10 O :   -0.487758
  11 C :   -0.352531
  12 H :    0.108074
  13 H :    0.095472
  14 H :    0.076038
  15 O :   -0.452411
  16 Pd:    0.536516
  17 O :   -0.491178
  18 C :    0.365261
  19 H :    0.152984
  20 H :    0.114972
  21 C :   -0.312332
  22 H :    0.045173
  23 O :   -0.446755
  24 C :    0.619711
  25 O :   -0.486348
  26 C :   -0.381696
  27 H :    0.085090
  28 H :    0.097516
  29 H :    0.146263
  30 O :   -0.481887
  31 C :    0.465339
  32 O :   -0.499897
  33 C :   -0.348994
  34 H :    0.094378
  35 H :    0.075260
  36 H :    0.102658
  37 O :   -0.500878
  38 C :    0.481277
  39 O :   -0.478021
  40 C :   -0.357789
  41 H :    0.095879
  42 H :    0.106683
  43 H :    0.076406
Sum of atomic charges:   -2.0000000

--------------------------------
MULLIKEN REDUCED ORBITAL CHARGES
--------------------------------
  0 Pds       :     2.567534  s :     2.567534
      pz      :     2.076090  p :     6.278900
      px      :     2.093709
      py      :     2.109101
      dz2     :     1.063859  d :     8.610258
      dxz     :     1.978414
      dyz     :     1.983182
      dx2y2   :     1.611174
      dxy     :     1.973629
      f0      :     0.001829  f :     0.005039
      f+1     :     0.000427
      f-1     :     0.001047
      f+2     :     0.000284
      f-2     :     0.000038
      f+3     :     0.000430
      f-3     :     0.000984

  1 O s       :     3.862059  s :     3.862059
      pz      :     1.465324  p :     4.550018
      px      :     1.545243
      py      :     1.539452
      dz2     :     0.006325  d :     0.032969
      dxz     :     0.008149
      dyz     :     0.006426
      dx2y2   :     0.006282
      dxy     :     0.005787
      f0      :     0.000248  f :     0.001945
      f+1     :     0.000361
      f-1     :     0.000233
      f+2     :     0.000329
      f-2     :     0.000370
      f+3     :     0.000214
      f-3     :     0.000192

  2 O s       :     3.868522  s :     3.868522
      pz      :     1.643307  p :     4.555254
      px      :     1.398841
      py      :     1.513106
      dz2     :     0.005609  d :     0.031883
      dxz     :     0.005519
      dyz     :     0.004162
      dx2y2   :     0.008387
      dxy     :     0.008205
      f0      :     0.000198  f :     0.001963
      f+1     :     0.000284
      f-1     :     0.000136
      f+2     :     0.000170
      f-2     :     0.000331
      f+3     :     0.000467
      f-3     :     0.000379

  3 C s       :     3.025944  s :     3.025944
      pz      :     0.749627  p :     2.129287
      px      :     0.669166
      py      :     0.710494
      dz2     :     0.064559  d :     0.270828
      dxz     :     0.055024
      dyz     :     0.040647
      dx2y2   :     0.071987
      dxy     :     0.038611
      f0      :     0.003249  f :     0.026701
      f+1     :     0.005537
      f-1     :     0.003643
      f+2     :     0.003307
      f-2     :     0.003893
      f+3     :     0.004311
      f-3     :     0.002760

  4 C s       :     3.255797  s :     3.255797
      pz      :     0.962147  p :     3.056063
      px      :     1.044777
      py      :     1.049139
      dz2     :     0.007184  d :     0.039787
      dxz     :     0.011280
      dyz     :     0.013299
      dx2y2   :     0.004408
      dxy     :     0.003616
      f0      :     0.001258  f :     0.003603
      f+1     :     0.000866
      f-1     :     0.000652
      f+2     :     0.000034
      f-2     :     0.000040
      f+3     :     0.000391
      f-3     :     0.000362

  5 H s       :     0.871653  s :     0.871653
      pz      :     0.004924  p :     0.022298
      px      :     0.012019
      py      :     0.005355

  6 H s       :     0.857099  s :     0.857099
      pz      :     0.006288  p :     0.022899
      px      :     0.007858
      py      :     0.008753

  7 H s       :     0.877946  s :     0.877946
      pz      :     0.006654  p :     0.022368
      px      :     0.005083
      py      :     0.010631

  8 O s       :     3.857013  s :     3.857013
      pz      :     1.650140  p :     4.614436
      px      :     1.557840
      py      :     1.406456
      dz2     :     0.003108  d :     0.032428
      dxz     :     0.005421
      dyz     :     0.004334
      dx2y2   :     0.008753
      dxy     :     0.010812
      f0      :     0.000248  f :     0.001858
      f+1     :     0.000186
      f-1     :     0.000190
      f+2     :     0.000067
      f-2     :     0.000281
      f+3     :     0.000436
      f-3     :     0.000449

  9 C s       :     3.005819  s :     3.005819
      pz      :     0.754896  p :     2.218926
      px      :     0.702468
      py      :     0.761561
      dz2     :     0.007502  d :     0.257635
      dxz     :     0.072274
      dyz     :     0.021696
      dx2y2   :     0.078290
      dxy     :     0.077873
      f0      :     0.002840  f :     0.025744
      f+1     :     0.001774
      f-1     :     0.001106
      f+2     :     0.002074
      f-2     :     0.003390
      f+3     :     0.007491
      f-3     :     0.007069

 10 O s       :     3.852878  s :     3.852878
      pz      :     1.476272  p :     4.603393
      px      :     1.360990
      py      :     1.766131
      dz2     :     0.002789  d :     0.029567
      dxz     :     0.009440
      dyz     :     0.000798
      dx2y2   :     0.008468
      dxy     :     0.008072
      f0      :     0.000195  f :     0.001920
      f+1     :     0.000231
      f-1     :     0.000032
      f+2     :     0.000359
      f-2     :     0.000095
      f+3     :     0.000497
      f-3     :     0.000511

 11 C s       :     3.232418  s :     3.232418
      pz      :     1.054396  p :     3.075319
      px      :     1.032227
      py      :     0.988696
      dz2     :     0.004747  d :     0.041293
      dxz     :     0.006759
      dyz     :     0.009104
      dx2y2   :     0.006069
      dxy     :     0.014614
      f0      :     0.000336  f :     0.003500
      f+1     :     0.000902
      f-1     :     0.000143
      f+2     :     0.000198
      f-2     :     0.000096
      f+3     :     0.000695
      f-3     :     0.001130

 12 H s       :     0.869380  s :     0.869380
      pz      :     0.008638  p :     0.022547
      px      :     0.008630
      py      :     0.005279

 13 H s       :     0.881915  s :     0.881915
      pz      :     0.010739  p :     0.022613
      px      :     0.006617
      py      :     0.005257

 14 H s       :     0.901809  s :     0.901809
      pz      :     0.004768  p :     0.022154
      px      :     0.009527
      py      :     0.007859

 15 O s       :     3.851792  s :     3.851792
      pz      :     1.636743  p :     4.566780
      px      :     1.593031
      py      :     1.337006
      dz2     :     0.004329  d :     0.031968
      dxz     :     0.003697
      dyz     :     0.009360
      dx2y2   :     0.007806
      dxy     :     0.006776
      f0      :     0.000152  f :     0.001871
      f+1     :     0.000056
      f-1     :     0.000319
      f+2     :     0.000300
      f-2     :     0.000226
      f+3     :     0.000419
      f-3     :     0.000400

 16 Pds       :     2.553370  s :     2.553370
      pz      :     2.078605  p :     6.280269
      px      :     2.116854
      py      :     2.084810
      dz2     :     1.661206  d :     8.624869
      dxz     :     1.459029
      dyz     :     1.907042
      dx2y2   :     1.914489
      dxy     :     1.683102
      f0      :     0.000704  f :     0.004977
      f+1     :     0.001307
      f-1     :     0.000388
      f+2     :     0.000595
      f-2     :     0.000862
      f+3     :     0.000732
      f-3     :     0.000389

 17 O s       :     3.809087  s :     3.809087
      pz      :     1.623460  p :     4.649890
      px      :     1.446606
      py      :     1.579825
      dz2     :     0.005030  d :     0.030204
      dxz     :     0.005176
      dyz     :     0.005751
      dx2y2   :     0.007490
      dxy     :     0.006757
      f0      :     0.000154  f :     0.001998
      f+1     :     0.000242
      f-1     :     0.000281
      f+2     :     0.000270
      f-2     :     0.000382
      f+3     :     0.000334
      f-3     :     0.000333

 18 C s       :     3.026023  s :     3.026023
      pz      :     0.864929  p :     2.329803
      px      :     0.763842
      py      :     0.701032
      dz2     :     0.048765  d :     0.253469
      dxz     :     0.030642
      dyz     :     0.057224
      dx2y2   :     0.062059
      dxy     :     0.054779
      f0      :     0.001945  f :     0.025444
      f+1     :     0.002771
      f-1     :     0.005620
      f+2     :     0.004472
      f-2     :     0.003288
      f+3     :     0.004153
      f-3     :     0.003196

 19 H s       :     0.822149  s :     0.822149
      pz      :     0.005014  p :     0.024866
      px      :     0.015070
      py      :     0.004782

 20 H s       :     0.860741  s :     0.860741
      pz      :     0.008835  p :     0.024287
      px      :     0.005218
      py      :     0.010234

 21 C s       :     3.160863  s :     3.160863
      pz      :     1.007853  p :     3.107131
      px      :     1.081872
      py      :     1.017406
      dz2     :     0.009294  d :     0.040936
      dxz     :     0.006850
      dyz     :     0.011755
      dx2y2   :     0.009249
      dxy     :     0.003788
      f0      :     0.000427  f :     0.003402
      f+1     :     0.000573
      f-1     :     0.000691
      f+2     :     0.000833
      f-2     :     0.000340
      f+3     :     0.000527
      f-3     :     0.000009

 22 H s       :     0.932518  s :     0.932518
      pz      :     0.005582  p :     0.022309
      px      :     0.006030
      py      :     0.010697

 23 O s       :     3.866055  s :     3.866055
      pz      :     1.568563  p :     4.546155
      px      :     1.312835
      py      :     1.664757
      dz2     :     0.003246  d :     0.032575
      dxz     :     0.008973
      dyz     :     0.001643
      dx2y2   :     0.010662
      dxy     :     0.008052
      f0      :     0.000242  f :     0.001969
      f+1     :     0.000283
      f-1     :     0.000075
      f+2     :     0.000352
      f-2     :     0.000070
      f+3     :     0.000448
      f-3     :     0.000499

 24 C s       :     2.988269  s :     2.988269
      pz      :     0.708443  p :     2.097738
      px      :     0.649558
      py      :     0.739736
      dz2     :     0.014326  d :     0.267241
      dxz     :     0.069202
      dyz     :     0.027281
      dx2y2   :     0.076996
      dxy     :     0.079436
      f0      :     0.002946  f :     0.027042
      f+1     :     0.002033
      f-1     :     0.001742
      f+2     :     0.003094
      f-2     :     0.002831
      f+3     :     0.005246
      f-3     :     0.009150

 25 O s       :     3.877271  s :     3.877271
      pz      :     1.599440  p :     4.574887
      px      :     1.593652
      py      :     1.381795
      dz2     :     0.003136  d :     0.032248
      dxz     :     0.005136
      dyz     :     0.005469
      dx2y2   :     0.007976
      dxy     :     0.010532
      f0      :     0.000245  f :     0.001942
      f+1     :     0.000165
      f-1     :     0.000216
      f+2     :     0.000077
      f-2     :     0.000334
      f+3     :     0.000439
      f-3     :     0.000465

 26 C s       :     3.267158  s :     3.267158
      pz      :     1.081981  p :     3.070671
      px      :     1.024234
      py      :     0.964456
      dz2     :     0.009031  d :     0.040197
      dxz     :     0.004054
      dyz     :     0.007259
      dx2y2   :     0.008458
      dxy     :     0.011395
      f0      :     0.000877  f :     0.003669
      f+1     :     0.000214
      f-1     :     0.000282
      f+2     :     0.000220
      f-2     :     0.000249
      f+3     :     0.000888
      f-3     :     0.000939

 27 H s       :     0.892713  s :     0.892713
      pz      :     0.006560  p :     0.022197
      px      :     0.010812
      py      :     0.004825

 28 H s       :     0.880312  s :     0.880312
      pz      :     0.005069  p :     0.022172
      px      :     0.008280
      py      :     0.008822

 29 H s       :     0.830157  s :     0.830157
      pz      :     0.013468  p :     0.023580
      px      :     0.004972
      py      :     0.005140

 30 O s       :     3.855736  s :     3.855736
      pz      :     1.391219  p :     4.592795
      px      :     1.633689
      py      :     1.567887
      dz2     :     0.006438  d :     0.031473
      dxz     :     0.005105
      dyz     :     0.010242
      dx2y2   :     0.004747
      dxy     :     0.004940
      f0      :     0.000306  f :     0.001883
      f+1     :     0.000167
      f-1     :     0.000488
      f+2     :     0.000354
      f-2     :     0.000305
      f+3     :     0.000135
      f-3     :     0.000130

 31 C s       :     3.013608  s :     3.013608
      pz      :     0.783806  p :     2.238046
      px      :     0.748459
      py      :     0.705781
      dz2     :     0.049219  d :     0.257011
      dxz     :     0.023800
      dyz     :     0.080423
      dx2y2   :     0.032038
      dxy     :     0.071530
      f0      :     0.004850  f :     0.025996
      f+1     :     0.001182
      f-1     :     0.005208
      f+2     :     0.004915
      f-2     :     0.003297
      f+3     :     0.003872
      f-3     :     0.002672

 32 O s       :     3.853301  s :     3.853301
      pz      :     1.792960  p :     4.615348
      px      :     1.484013
      py      :     1.338375
      dz2     :     0.003290  d :     0.029324
      dxz     :     0.000466
      dyz     :     0.007976
      dx2y2   :     0.008089
      dxy     :     0.009503
      f0      :     0.000229  f :     0.001924
      f+1     :     0.000054
      f-1     :     0.000320
      f+2     :     0.000320
      f-2     :     0.000054
      f+3     :     0.000541
      f-3     :     0.000407

 33 C s       :     3.233948  s :     3.233948
      pz      :     0.988615  p :     3.069690
      px      :     1.049257
      py      :     1.031818
      dz2     :     0.009681  d :     0.041810
      dxz     :     0.008564
      dyz     :     0.013984
      dx2y2   :     0.001878
      dxy     :     0.007705
      f0      :     0.000956  f :     0.003546
      f+1     :     0.000367
      f-1     :     0.001133
      f+2     :     0.000272
      f-2     :     0.000155
      f+3     :     0.000052
      f-3     :     0.000613

 34 H s       :     0.883224  s :     0.883224
      pz      :     0.005015  p :     0.022399
      px      :     0.009049
      py      :     0.008335

 35 H s       :     0.902598  s :     0.902598
      pz      :     0.008330  p :     0.022141
      px      :     0.004735
      py      :     0.009076

 36 H s       :     0.874595  s :     0.874595
      pz      :     0.005397  p :     0.022747
      px      :     0.010378
      py      :     0.006973

 37 O s       :     3.862729  s :     3.862729
      pz      :     1.619197  p :     4.603760
      px      :     1.433268
      py      :     1.551296
      dz2     :     0.006214  d :     0.032555
      dxz     :     0.005361
      dyz     :     0.004536
      dx2y2   :     0.008000
      dxy     :     0.008443
      f0      :     0.000200  f :     0.001834
      f+1     :     0.000231
      f-1     :     0.000147
      f+2     :     0.000077
      f-2     :     0.000323
      f+3     :     0.000437
      f-3     :     0.000419

 38 C s       :     3.012698  s :     3.012698
      pz      :     0.772555  p :     2.219297
      px      :     0.722411
      py      :     0.724331
      dz2     :     0.060803  d :     0.261043
      dxz     :     0.054527
      dyz     :     0.038324
      dx2y2   :     0.067399
      dxy     :     0.039991
      f0      :     0.004467  f :     0.025684
      f+1     :     0.002517
      f-1     :     0.004284
      f+2     :     0.002664
      f-2     :     0.004970
      f+3     :     0.003908
      f-3     :     0.002875

 39 O s       :     3.850086  s :     3.850086
      pz      :     1.533218  p :     4.596324
      px      :     1.618399
      py      :     1.444708
      dz2     :     0.006688  d :     0.029685
      dxz     :     0.005558
      dyz     :     0.007560
      dx2y2   :     0.005341
      dxy     :     0.004539
      f0      :     0.000230  f :     0.001927
      f+1     :     0.000193
      f-1     :     0.000389
      f+2     :     0.000404
      f-2     :     0.000375
      f+3     :     0.000147
      f-3     :     0.000188

 40 C s       :     3.235297  s :     3.235297
      pz      :     1.012715  p :     3.077434
      px      :     1.029681
      py      :     1.035038
      dz2     :     0.010956  d :     0.041541
      dxz     :     0.011029
      dyz     :     0.008135
      dx2y2   :     0.003085
      dxy     :     0.008337
      f0      :     0.000657  f :     0.003517
      f+1     :     0.001134
      f-1     :     0.000520
      f+2     :     0.000280
      f-2     :     0.000220
      f+3     :     0.000509
      f-3     :     0.000196

 41 H s       :     0.881551  s :     0.881551
      pz      :     0.005411  p :     0.022570
      px      :     0.005982
      py      :     0.011177

 42 H s       :     0.870813  s :     0.870813
      pz      :     0.009048  p :     0.022504
      px      :     0.008611
      py      :     0.004845

 43 H s       :     0.901417  s :     0.901417
      pz      :     0.004869  p :     0.022178
      px      :     0.008779
      py      :     0.008530



                     *******************************
                     * LOEWDIN POPULATION ANALYSIS *
                     *******************************

----------------------
LOEWDIN ATOMIC CHARGES
----------------------
   0 Pd:    0.146293
   1 O :    0.119145
   2 O :    0.119243
   3 C :   -0.554193
   4 C :   -0.270351
   5 H :    0.120407
   6 H :    0.134893
   7 H :    0.122934
   8 O :    0.058976
   9 C :   -0.611293
  10 O :    0.015849
  11 C :   -0.294210
  12 H :    0.124311
[...]
      px      :     0.013436
      py      :     0.025482

 36 H s       :     0.812937  s :     0.812937
      pz      :     0.013862  p :     0.061856
      px      :     0.029070
      py      :     0.018923

 37 O s       :     3.358063  s :     3.358063
      pz      :     1.523456  p :     4.499926
      px      :     1.453533
      py      :     1.522937
      dz2     :     0.013990  d :     0.078322
      dxz     :     0.016131
      dyz     :     0.010687
      dx2y2   :     0.015112
      dxy     :     0.022403
      f0      :     0.000799  f :     0.005401
      f+1     :     0.000595
      f-1     :     0.000519
      f+2     :     0.000164
      f-2     :     0.001062
      f+3     :     0.001030
      f-3     :     0.001233

 38 C s       :     2.753782  s :     2.753782
      pz      :     0.959178  p :     2.681369
      px      :     0.861427
      py      :     0.860764
      dz2     :     0.233209  d :     1.012636
      dxz     :     0.195501
      dyz     :     0.175356
      dx2y2   :     0.209826
      dxy     :     0.198743
      f0      :     0.027469  f :     0.160924
      f+1     :     0.016366
      f-1     :     0.027616
      f+2     :     0.019804
      f-2     :     0.028994
      f+3     :     0.023771
      f-3     :     0.016905

 39 O s       :     3.405130  s :     3.405130
      pz      :     1.530886  p :     4.500630
      px      :     1.518441
      py      :     1.451303
      dz2     :     0.013995  d :     0.065116
      dxz     :     0.010464
      dyz     :     0.020465
      dx2y2   :     0.009023
      dxy     :     0.011170
      f0      :     0.000724  f :     0.005899
      f+1     :     0.000466
      f-1     :     0.001391
      f+2     :     0.001006
      f-2     :     0.001318
      f+3     :     0.000550
      f-3     :     0.000445

 40 C s       :     2.855925  s :     2.855925
      pz      :     1.060610  p :     3.187024
      px      :     1.060942
      py      :     1.065472
      dz2     :     0.062954  d :     0.229090
      dxz     :     0.064810
      dyz     :     0.029983
      dx2y2   :     0.019854
      dxy     :     0.051489
      f0      :     0.003629  f :     0.022728
      f+1     :     0.004440
      f-1     :     0.005262
      f+2     :     0.004153
      f-2     :     0.001708
      f+3     :     0.002419
      f-3     :     0.001116

 41 H s       :     0.816644  s :     0.816644
      pz      :     0.014046  p :     0.061742
      px      :     0.016220
      py      :     0.031477

 42 H s       :     0.814676  s :     0.814676
      pz      :     0.023981  p :     0.061966
      px      :     0.024507
      py      :     0.013478

 43 H s       :     0.829866  s :     0.829866
      pz      :     0.012669  p :     0.060587
      px      :     0.024040
      py      :     0.023878



                      *****************************
                      * MAYER POPULATION ANALYSIS *
                      *****************************

  NA   - Mulliken gross atomic population
  ZA   - Total nuclear charge
  QA   - Mulliken gross atomic charge
  VA   - Mayer's total valence
  BVA  - Mayer's bonded valence
  FA   - Mayer's free valence

  ATOM       NA         ZA         QA         VA         BVA        FA
  0 Pd    17.4617    18.0000     0.5383     2.2950     2.2950     0.0000
  1 O      8.4470     8.0000    -0.4470     2.0204     2.0204    -0.0000
  2 O      8.4576     8.0000    -0.4576     1.9891     1.9891    -0.0000
  3 C      5.4528     6.0000     0.5472     3.9704     3.9704     0.0000
  4 C      6.3552     6.0000    -0.3552     3.8883     3.8883     0.0000
  5 H      0.8940     1.0000     0.1060     0.9818     0.9818     0.0000
  6 H      0.8800     1.0000     0.1200     0.9784     0.9784    -0.0000
  7 H      0.9003     1.0000     0.0997     0.9830     0.9830    -0.0000
  8 O      8.5057     8.0000    -0.5057     1.8868     1.8868    -0.0000
  9 C      5.5081     6.0000     0.4919     4.1255     4.1255    -0.0000
 10 O      8.4878     8.0000    -0.4878     2.0050     2.0050     0.0000
 11 C      6.3525     6.0000    -0.3525     3.8317     3.8317     0.0000
 12 H      0.8919     1.0000     0.1081     0.9826     0.9826     0.0000
 13 H      0.9045     1.0000     0.0955     0.9842     0.9842     0.0000
 14 H      0.9240     1.0000     0.0760     0.9937     0.9937    -0.0000
 15 O      8.4524     8.0000    -0.4524     1.9142     1.9142    -0.0000
 16 Pd    17.4635    18.0000     0.5365     2.3084     2.3084     0.0000
 17 O      8.4912     8.0000    -0.4912     2.0156     2.0156     0.0000
 18 C      5.6347     6.0000     0.3653     4.3492     4.3492     0.0000
 19 H      0.8470     1.0000     0.1530     0.9978     0.9978     0.0000
 20 H      0.8850     1.0000     0.1150     1.0179     1.0179     0.0000
 21 C      6.3123     6.0000    -0.3123     3.6861     3.6861     0.0000
 22 H      0.9548     1.0000     0.0452     1.0007     1.0007     0.0000
 23 O      8.4468     8.0000    -0.4468     2.0329     2.0329    -0.0000
 24 C      5.3803     6.0000     0.6197     3.9255     3.9255    -0.0000
 25 O      8.4863     8.0000    -0.4863     1.9831     1.9831    -0.0000
 26 C      6.3817     6.0000    -0.3817     3.8610     3.8610     0.0000
 27 H      0.9149     1.0000     0.0851     0.9823     0.9823    -0.0000
 28 H      0.9025     1.0000     0.0975     0.9824     0.9824     0.0000
 29 H      0.8537     1.0000     0.1463     0.9929     0.9929     0.0000
 30 O      8.4819     8.0000    -0.4819     1.9068     1.9068    -0.0000
 31 C      5.5347     6.0000     0.4653     4.1631     4.1631    -0.0000
 32 O      8.4999     8.0000    -0.4999     1.9810     1.9810    -0.0000
 33 C      6.3490     6.0000    -0.3490     3.8501     3.8501    -0.0000
 34 H      0.9056     1.0000     0.0944     0.9822     0.9822    -0.0000
 35 H      0.9247     1.0000     0.0753     0.9930     0.9930    -0.0000
 36 H      0.8973     1.0000     0.1027     0.9822     0.9822    -0.0000
 37 O      8.5009     8.0000    -0.5009     1.8998     1.8998    -0.0000
 38 C      5.5187     6.0000     0.4813     4.1411     4.1411     0.0000
 39 O      8.4780     8.0000    -0.4780     2.0158     2.0158     0.0000
 40 C      6.3578     6.0000    -0.3578     3.8418     3.8418    -0.0000
 41 H      0.9041     1.0000     0.0959     0.9806     0.9806    -0.0000
 42 H      0.8933     1.0000     0.1067     0.9819     0.9819    -0.0000
 43 H      0.9236     1.0000     0.0764     0.9948     0.9948    -0.0000

  Mayer bond orders larger than 0.100000
B(  0-Pd,  1-O ) :   0.4332 B(  0-Pd,  8-O ) :   0.4702 B(  0-Pd, 16-Pd) :   0.1390 
B(  0-Pd, 25-O ) :   0.4462 B(  0-Pd, 30-O ) :   0.5002 B(  1-O ,  3-C ) :   1.4801 
B(  2-O ,  3-C ) :   1.4772 B(  2-O , 16-Pd) :   0.3929 B(  3-C ,  4-C ) :   0.9630 
B(  4-C ,  5-H ) :   0.9780 B(  4-C ,  6-H ) :   0.9615 B(  4-C ,  7-H ) :   0.9705 
B(  8-O ,  9-C ) :   1.3327 B(  9-C , 10-O ) :   1.8562 B(  9-C , 11-C ) :   0.9462 
B( 11-C , 12-H ) :   0.9624 B( 11-C , 13-H ) :   0.9618 B( 11-C , 14-H ) :   0.9802 
B( 15-O , 16-Pd) :   0.5419 B( 15-O , 18-C ) :   1.3430 B( 16-Pd, 23-O ) :   0.4151 
B( 16-Pd, 37-O ) :   0.4656 B( 17-O , 18-C ) :   1.9418 B( 18-C , 21-C ) :   0.9682 
B( 19-H , 21-C ) :   0.9357 B( 20-H , 21-C ) :   0.9422 B( 21-C , 22-H ) :   0.9589 
B( 23-O , 24-C ) :   1.4994 B( 24-C , 25-O ) :   1.4082 B( 24-C , 26-C ) :   0.9531 
B( 26-C , 27-H ) :   0.9707 B( 26-C , 28-H ) :   0.9764 B( 26-C , 29-H ) :   0.9523 
B( 30-O , 31-C ) :   1.3522 B( 31-C , 32-O ) :   1.8308 B( 31-C , 33-C ) :   0.9514 
B( 33-C , 34-H ) :   0.9675 B( 33-C , 35-H ) :   0.9786 B( 33-C , 36-H ) :   0.9615 
B( 37-O , 38-C ) :   1.3266 B( 38-C , 39-O ) :   1.8658 B( 38-C , 40-C ) :   0.9476 
B( 40-C , 41-H ) :   0.9616 B( 40-C , 42-H ) :   0.9634 B( 40-C , 43-H ) :   0.9819 


-------
TIMINGS
-------

Total SCF time: 0 days 0 hours 4 min 38 sec 

Total time                  ....     278.356 sec
Sum of individual times     ....     276.334 sec  ( 99.3%)

SCF preparation             ....       1.727 sec  (  0.6%)
Fock matrix formation       ....     213.961 sec  ( 76.9%)
  Startup                   ....       5.939 sec  (  2.8% of F)
  Split-RI-J                ....      35.831 sec  ( 16.7% of F)
  Chain of spheres X        ....     117.810 sec  ( 55.1% of F)
  XC integration            ....      43.913 sec  ( 20.5% of F)
    XC Preparation          ....       0.000 sec  (  0.0% of XC)
    Basis function eval.    ....       5.147 sec  ( 11.7% of XC)
    Density eval.           ....      12.808 sec  ( 29.2% of XC)
    XC-Functional eval.     ....       1.548 sec  (  3.5% of XC)
    XC-Potential eval.      ....      10.129 sec  ( 23.1% of XC)
Diagonalization             ....       0.000 sec  (  0.0%)
Density matrix formation    ....      12.780 sec  (  4.6%)
Total Energy calculation    ....       4.923 sec  (  1.8%)
Population analysis         ....       1.095 sec  (  0.4%)
Orbital Transformation      ....       2.352 sec  (  0.8%)
Orbital Orthonormalization  ....       0.000 sec  (  0.0%)
DIIS solution               ....      33.037 sec  ( 11.9%)
SOSCF solution              ....       6.459 sec  (  2.3%)
Finished LeanSCF after 278.8 sec

Maximum memory used throughout the entire LEANSCF-calculation: 139.2 MB


-------------------------------------------------------------------------------
                          DFT DISPERSION CORRECTION                            
                                                                               
                              DFTD3 V3.1  Rev 1                                
                          USING Becke-Johnson damping                          
-------------------------------------------------------------------------------
The R2SCANh functional is recognized
Active option DFTDOPT                   ...         4   

molecular C6(AA) [au] = 25274.620752 


            DFT-D V3
 parameters
 s6 scaling factor         :     1.0000 
 a1 scaling factor         :     0.4709 
 s8 scaling factor         :     1.1236 
 a2 scaling factor         :     5.9157 
 ad hoc parameters k1-k3   :    16.0000     1.3333    -4.0000 

 Edisp/kcal,au: -12.944875385771  -0.020628969824 
 E6   /kcal   :  -9.001706966 
 E8   /kcal   :  -3.943168420 
 % E8         :  30.461231202 

-------------------------   ----------------
Dispersion correction           -0.020628970
-------------------------   ----------------


-------------------------   --------------------
FINAL SINGLE POINT ENERGY     -1626.828000962551
-------------------------   --------------------



           ************************************************************
           *        Program running with 16 parallel MPI-processes    *
           *              working on a common directory               *
           ************************************************************

------------------------------------------------------------------------------
                              ORCA PROPERTY CALCULATIONS
------------------------------------------------------------------------------

GBWName                                 ... CS_PdOAc_003_sp_02.gbw
Number of atoms                         ...     44
Number of basis functions               ...    932
Max core memory                         ...   3500 MB

Electric properties:
Dipole moment                           ... YES
Quadrupole moment                       ...  NO
Static polarizability (Dipole/Dipole)   ...  NO
Static polarizability (Dipole/Quad.)    ...  NO
Static polarizability (Quad./Quad.)     ...  NO
Static polarizability (Velocity)        ...  NO

Atomic electric properties:
Dipole moment                           ...  NO
Quadrupole moment                       ...  NO
Static polarizability                   ...  NO

Choice of electric origin               ... Center of mass
Position of electric origin             ...     1.822724     2.580944     0.101745

General magnetic properties:
Magnetizability                         ...  NO

EPR properties:
g-Tensor (aka g-matrix)                 ...  NO
Zero-Field splitting spin-orbit         ...  NO
Zero-field splitting spin-spin          ...  NO
Hyperfine couplings                     ...  NO (   0 nuclei)
Quadrupole couplings                    ...  NO (   0 nuclei)
Contact density                         ...  NO (   0 nuclei)

NMR properties:
Chemical shifts                         ...  NO (   0 nuclei)
Spin-rotation constants                 ...  NO (   0 nuclei)
Spin-spin couplings                     ...  NO (   0 nuclei,    0 pairs)

Choice of magnetic origin               ... GIAO
Position of magnetic origin             ...     0.000000     0.000000     0.000000

Properties with geometric perturbations:
SCF Hessian                             ...  NO
IR spectrum                             ...  NO
VCD spectrum                            ...  NO
X-ray spectroscopy properties:
SCF XES/XAS/RIXS spectra                ...  NO


-------------
DIPOLE MOMENT
-------------

Method             : SCF
Type of density    : Electron Density
Multiplicity       :   1
Irrep              :   0
Energy             : -1626.8073719927263028 Eh
Relativity type    : 
Basis              : AO
                                X                 Y                 Z
Electronic contribution:    -19.070096236     -29.218378467     -48.967120209
Nuclear contribution   :     17.227298936      28.277831810      49.066965981
                        -----------------------------------------
Total Dipole Moment    :     -1.842797300      -0.940546657       0.099845771
                        -----------------------------------------
Magnitude (a.u.)       :      2.071351994
Magnitude (Debye)      :      5.264958355



--------------------
Rotational spectrum 
--------------------
 
Rotational constants in cm-1:             0.005988             0.004640             0.004055 
Rotational constants in MHz :           179.528347           139.108515           121.563921 

Dipole components along the rotational axes: 
x,y,z [a.u.] :    -1.171195    -1.271457    -1.141139 
x,y,z [Debye]:    -2.976941    -3.231786    -2.900546 

 

Dipole moment calculation done in   0.3 sec 

Maximum memory used throughout the entire PROP-calculation: 77.5 MB

--------------------------------
SUGGESTED CITATIONS FOR THIS RUN
--------------------------------

Below you find a list of papers that are relevant to this ORCA run
We neither can nor want to force you to cite these papers, but we appreciate if you do
You receive ORCA, which is the product of decades of hard work by many enthusiastic individuals, for free
The only thing we kindly ask in return is that you cite our papers,
We deeply appreciate it, if you show your appreciation for ORCA by not just citing the generic ORCA reference.

Please note that relegating all ORCA citations to the supporting information does *not* help us.
SI sections are not indexed - citations you put there will not count into any citation statistics
But we need these citations in order to attract the funding resources that allow us to do what we are doing

Therefore, if you are a happy ORCA user, please consider citing a few of the papers listed below in the main body of your paper

In addition to the list printed below, the program has created the file CS_PdOAc_003_sp_02.bibtex that contains the list in bibtex format
You can import this file easily into all common literature databanks and citation aid programs


List of essential papers. We consider these as the minimum necessary citations

  1. Neese,F.
     Software update: the ORCA program system, version 5.0
     WIRES Comput. Molec. Sci., 2022 12(1)e1606
     doi.org/10.1002/wcms.1606

List of papers to cite with high priority. The work reported in these papers was absolutely
necessary for this run to complete.
Our perspective: the developers of density functionals and basis sets usually get cited in chemistry papers
Good! But without the algorithms to do something with them, the functionals or basis sets would not do anything.
Hence, in our opinion, the algorithm design and method developments papers are equally worthy of getting cited

  1. Neese,F.
     An improvement of the resolution of the identity approximation for the formation of the Coulomb matrix
     J. Comp. Chem., 2003 24(14)1740-1747
     doi.org/10.1002/jcc.10318
  2. Neese,F.; Wennmohs,F.; Hansen,A.; Becker,U.
     Efficient, approximate and parallel Hartree-Fock and hybrid DFT calculations. A 'chain-of-spheres' algorithm for the Hartree-Fock exchange
     Chem. Phys., 2009 356(1-3)98-109
     doi.org/10.1016/j.chemphys.2008.10.036
  3. Helmich-Paris,B.; de Souza,B.; Neese,F.; Izsák,R.
     An improved chain of spheres for exchange algorithm
     J. Chem. Phys., 2021 155 104109
     doi.org/doi: 10.1063/5.0058766.
  4. Neese,F.
     The SHARK Integral Generation and Digestion System
     J. Comp. Chem., 2022  1-16
     doi.org/10.1002/jcc.26942
  5. Lehtola,S.; Steigemann,C.; Oliveira,M.; Marques,M.
     Recent developments in Libxc - A comprehensive library of functionals for density functional theory
     Software X, 2018 7 
     doi.org/10.1016/j.softx.2017.11.002
  6. Grimme,S.; Antony,J.; Ehrlich,S.; Krieg,H.
     A consistent and accurate ab initio parametrization of density functional dispersion correction (DFT-D) for the 94 elements H-Pu
     J. Chem. Phys., 2010 132 154104-XXXX
     doi.org/10.1063/1.3382344
  7. Grimme,S.; Ehrlich,S.; Goerigk,L.
     Effect of the damping function in dispersion corrected density functional theory
     J. Comput. Chem., 2011 32(7)1456-1465
     doi.org/10.1002/jcc.21759
  8. Bursch,M.; Neugebauer,H.; Ehlert,S.; Grimme,S.
     Dispersion corrected r2SCAN based global hybrid functionals: r2SCANh, r2SCAN0, and r2SCAN50
     J. Phys. Chem., 2022 156(13)134105
     doi.org/10.1063/5.0086040

List of suggested additional citations. These are papers that are important in the 'surrounding' of 
of this run, or papers that preceded the highly important papers. If you like your results we are grateful for a citation.

  1. Izsak,R.; Neese,F.
     An overlap fitted chain of spheres exchange method
     J. Chem. Phys., 2011 135 144105
     doi.org/10.1063/1.3646921
  2. Izsak,R.; Hansen,A.; Neese,F.
     The resolution of identity and chain of spheres approximations for the LPNO-CCSD singles Fock term
     Molec. Phys., 2012 110 2413-2417
     doi.org/10.1080/00268976.2012.687466
  3. Neese,F.
     The ORCA program system
     WIRES Comput. Molec. Sci., 2012 2(1)73-78
     doi.org/10.1002/wcms.81
  4. Izsak,R.; Neese,F.; Klopper,W.
     Robust fitting techniques in the chain of spheres approximation to the Fock exchange: The role of the complementary space
     J. Chem. Phys., 2013 139 
     doi.org/10.1063/1.4819264
  5. Neese,F.
     Software update: the ORCA program system, version 4.0
     WIRES Comput. Molec. Sci., 2018 8(1)1-6
     doi.org/10.1002/wcms.1327
  6. Neese,F.; Wennmohs,F.; Becker,U.; Riplinger,C.
     The ORCA quantum chemistry program package
     J. Chem. Phys., 2020 152 Art. No. L224108
     doi.org/10.1063/5.0004608
  7. Wittmann,L.; Neugebauer,H.; Grimme,S.; Bursch,M.
     Dispersion-corrected r2SCAN based double-hybrid functionals
     J. Chem. Phys., 2023 159(22)224103
     doi.org/10.1063/5.0174988

List of optional additional citations

  1. Neese,F.
     Approximate second-order SCF convergence for spin unrestricted wavefunctions
     Chem. Phys. Lett., 2000 325(1-3)93-98
     doi.org/10.1016/s0009-2614(00)00662-x

Timings for individual modules:

Sum of individual times          ...      315.810 sec (=   5.263 min)
Startup calculation              ...       15.359 sec (=   0.256 min)   4.9 %
SCF iterations                   ...      297.978 sec (=   4.966 min)  94.4 %
Property calculations            ...        2.473 sec (=   0.041 min)   0.8 %
                             ****ORCA TERMINATED NORMALLY****
TOTAL RUN TIME: 0 days 0 hours 5 minutes 19 seconds 442 msec
