
                                 *****************
                                 * O   R   C   A *
                                 *****************

                                            #,                                       
                                            ###                                      
                                            ####                                     
                                            #####                                    
                                            ######                                   
                                           ########,                                 
                                     ,,################,,,,,                         
                               ,,#################################,,                 
                          ,,##########################################,,             
                       ,#########################################, ''#####,          
                    ,#############################################,,   '####,        
                  ,##################################################,,,,####,       
                ,###########''''           ''''###############################       
              ,#####''   ,,,,##########,,,,          '''####'''          '####       
            ,##' ,,,,###########################,,,                        '##       
           ' ,,###''''                  '''############,,,                           
         ,,##''                                '''############,,,,        ,,,,,,###''
      ,#''                                            '''#######################'''  
     '                                                          ''''####''''         
             ,#######,   #######,   ,#######,      ##                                
            ,#'     '#,  ##    ##  ,#'     '#,    #''#        ,####,   ,####,        
            ##       ##  ##   ,#'  ##            #'  '#       #'       #'  '#        
            ##       ##  #######   ##           ,######,      #####,   #    #        
            '#,     ,#'  ##    ##  '#,     ,#' ,#      #,     #,   #   #,  ,#        
             '#######'   ##     ##  '#######'  #'      '#     '####' # '####'        



                #########################################################
                #                        -***-                          #
                #          Department of theory and spectroscopy        #
                #                                                       #
                #                      Frank Neese                      #
                #                                                       #
                #     Directorship, Architecture, Infrastructure        #
                #                    SHARK, DRIVERS                     #
                #        Core code/Algorithms in most modules           #
                #                                                       #
                #        Max Planck Institute fuer Kohlenforschung      #
                #                Kaiser Wilhelm Platz 1                 #
                #                 D-45470 Muelheim/Ruhr                 #
                #                      Germany                          #
                #                                                       #
                #                  All rights reserved                  #
                #                        -***-                          #
                #########################################################


                         Program Version 6.0.0  -   RELEASE  -


 With contributions from (in alphabetic order):
   Daniel Aravena         : Magnetic Suceptibility
   Michael Atanasov       : Ab Initio Ligand Field Theory (pilot matlab implementation)
   Alexander A. Auer      : GIAO ZORA, VPT2 properties, NMR spectrum
   Ute Becker             : All parallelization in ORCA, NUMFREQ, NUMCALC
   Giovanni Bistoni       : ED, misc. LED, open-shell LED, HFLD
   Martin Brehm           : Molecular dynamics
   Dmytro Bykov           : pre 5.0 version of the SCF Hessian
   Marcos Casanova-Páez   : Triplet and SCS-CIS(D). UHF-(DLPNO)-IP/EA/STEOM-CCSD. UHF-CVS-IP/STEOM-CCSD
   Vijay G. Chilkuri      : MRCI spin determinant printing, contributions to CSF-ICE
   Pauline Colinet        : FMM embedding
   Dipayan Datta          : RHF DLPNO-CCSD density
   Achintya Kumar Dutta   : EOM-CC, STEOM-CC
   Nicolas Foglia         : Exact transition moments, OPA infrastructure, MCD improvements
   Dmitry Ganyushin       : Spin-Orbit,Spin-Spin,Magnetic field MRCI
   Miquel Garcia          : C-PCM and meta-GGA Hessian, CCSD/C-PCM, Gaussian charge scheme
   Tiago L. C. Gouveia    : GS-ROHF, GS-ROCIS
   Yang Guo               : DLPNO-NEVPT2, F12-NEVPT2, CIM, IAO-localization
   Andreas Hansen         : Spin unrestricted coupled pair/coupled cluster methods
   Ingolf Harden          : AUTO-CI MPn and infrastructure 
   Benjamin Helmich-Paris : MC-RPA, TRAH-(SCF,CASSCF), AVAS, COSX integrals, SCF dyn. polar.
   Lee Huntington         : MR-EOM, pCC
   Robert Izsak           : Overlap fitted RIJCOSX, COSX-SCS-MP3, EOM
   Riya Kayal             : Wick's Theorem for AUTO-CI, AUTO-CI UHF-CCSDT
   Emily Kempfer          : AUTO-CI, RHF CISDT and CCSDT
   Christian Kollmar      : KDIIS, OOCD, Brueckner-CCSD(T), CCSD density, CASPT2, CASPT2-K, improved NEVPT2
   Axel Koslowski         : Symmetry handling
   Simone Kossmann        : Meta GGA functionals, TD-DFT gradient, OOMP2, (MP2 Hessian; deprecated post 5.0)
   Lucas Lang             : DCDCAS
   Marvin Lechner         : AUTO-CI (C++ implementation), FIC-MRCC
   Spencer Leger          : CASSCF response
   Dagmar Lenk            : GEPOL surface, SMD, ORCA-2-JSON
   Dimitrios Liakos       : Extrapolation schemes; Compound Job, initial MDCI parallelization
   Dimitrios Manganas     : Further ROCIS development; embedding schemes. LFT, Crystal Embedding
   Dimitrios Pantazis     : SARC Basis sets
   Anastasios Papadopoulos: AUTO-CI, single reference methods and gradients
   Taras Petrenko         : pre 6.0 DFT Hessian and TD-DFT gradient, (ASA, deprecated), ECA, 1-Electron XAS/XES, NRVS
   Peter Pinski           : DLPNO-MP2, DLPNO-MP2 Gradient
   Christoph Reimann      : Effective Core Potentials
   Marius Retegan         : Local ZFS, SOC
   Christoph Riplinger    : Optimizer, TS searches, QM/MM, DLPNO-CCSD(T), (RO)-DLPNO pert. Triples
   Michael Roemelt        : Original ROCIS implementation
   Masaaki Saitow         : Open-shell DLPNO-CCSD energy and density
   Barbara Sandhoefer     : DKH picture change effects
   Kantharuban Sivalingam : CASSCF convergence/infrastructure, NEVPT2 and variants, FIC-MRCI
   Bernardo de Souza      : ESD, SOC TD-DFT
   Georgi Stoychev        : AutoAux, RI-MP2 NMR, DLPNO-MP2 response, X2C
   Van Anh Tran           : RI-MP2 g-tensors
   Willem Van den Heuvel  : Paramagnetic NMR
   Zikuan Wang            : NOTCH, Electric field optimization 
   Frank Wennmohs         : Technical directorship and infrastructure
   Hang Xu                : AUTO-CI-Response properties 


 We gratefully acknowledge several colleagues who have allowed us to
 interface, adapt or use parts of their codes:
   Stefan Grimme, W. Hujo, H. Kruse, P. Pracht,  : VdW corrections, initial TS optimization,
                  C. Bannwarth, S. Ehlert,         DFT functionals, gCP, sTDA/sTD-DF
                  L. Wittmann, M. Mueller
   Ed Valeev, F. Pavosevic, A. Kumar             : LibInt (2-el integral package), F12 methods
   Garnet Chan, S. Sharma, J. Yang, R. Olivares  : DMRG
   Ulf Ekstrom                                   : XCFun DFT Library
   Mihaly Kallay                                 : mrcc  (arbitrary order and MRCC methods)
   Frank Weinhold                                : gennbo (NPA and NBO analysis)
   Simon Mueller                                 : openCOSMO-RS
   Christopher J. Cramer and Donald G. Truhlar   : smd solvation model
   Lars Goerigk                                  : TD-DFT with DH, B97 family of functionals
   V. Asgeirsson, H. Jonsson                     : NEB implementation
   FAccTs GmbH                                   : IRC, NEB, NEB-TS, DLPNO-Multilevel, CI-OPT
                                                   MM, QMMM, 2- and 3-layer-ONIOM, Crystal-QMMM,
                                                   LR-CPCM, SF, NACMEs, symmetry and pop. for TD-DFT,
                                                   nearIR, NL-DFT gradient (VV10), updates on ESD,
                                                   ML-optimized integration grids, MBIS, APM,
                                                   GOAT, DOCKER, SOLVATOR, interface openCOSMO-RS
   S Lehtola, MJT Oliveira, MAL Marques          : LibXC Library
   Liviu Ungur et al                             : ANISO software


 Your calculation uses the libint2 library for the computation of 2-el integrals
 For citations please refer to: http://libint.valeyev.net

 Your ORCA version has been built with support for libXC version: 6.2.2
 For citations please refer to: https://libxc.gitlab.io

 This ORCA versions uses:
   CBLAS   interface :  Fast vector & matrix operations
   LAPACKE interface :  Fast linear algebra routines
   SCALAPACK package :  Parallel linear algebra routines
   Shared memory     :  Shared parallel matrices
   BLAS/LAPACK       :  OpenBLAS 0.3.27  USE64BITINT DYNAMIC_ARCH NO_AFFINITY Sandybridge SINGLE_THREADED
        Core in use  :  Sandybridge
   Copyright (c) 2011-2014, The OpenBLAS Project


NOTE: MaxCore=3500 MB was set to SCF,MP2,MDCI,CIPSI,MRCI and CIS
      => If you want to overwrite this, your respective input block should be placed after the MaxCore statement
Your calculation utilizes the atom-pairwise dispersion correction
with the Becke-Johnson damping scheme (D3BJ)


Warning: RI is on but no J-basis has been assigned. Assigning Def2/J (nothing to worry about!)
================================================================================

cite the ECPs for Pd [Def2-ECP] as follows:
Ce-Yb(ecp-28): M. Dolg, H. Stoll, H.Preuss, J. Chem. Phys., 1989, 90, 1730-1734.
Y-Cd(ecp-28), Hf-Hg(ecp-46): D. Andrae,U. Haeussermann, M. Dolg, H. Stoll, H. Preuss, Theor. Chim. Acta, 1990, 77, 123-141.
In-Sb(ecp-28), Tl-Bi(ecp-46): B. Metz, H. Stoll, M. Dolg, J. Chem. Phys., 2000, 113, 2563-2569.
Te-Xe(ecp-28), Po-Rn(ecp-46): K. A. Peterson, D. Figgen, E. Goll, H. Stoll, M. Dolg, J. Chem. Phys., 2003, 119, 11113-11123.
Rb(ecp-28), Cs(ecp-46): T. Leininger, A. Nicklass, W. Kuechle, H. Stoll, M. Dolg, A. Bergner, Chem. Phys. Lett., 1996, 255, 274-280.
Sr(ecp-28), Ba(ecp-46): M. Kaupp, P. V. Schleyer, H. Stoll and H. Preuss, J. Chem. Phys., 1991, 94, 1360-1366.
La(ecp-46): M. Dolg, H. Stoll, A. Savin, H. Preuss, Theor. Chim. Acta, 1989, 75, 173-194.
Lu(ecp-28): X. Cao, M. Dolg, J. Chem. Phys., 2001, 115, 7348-7355.

ECP parameters for Pd [Def2-ECP] have been obtained from:
TURBOMOLE (7.0.2)

----- Orbital basis set information -----
Your calculation utilizes the basis: def2-SV(P)
   F. Weigend and R. Ahlrichs, Phys. Chem. Chem. Phys. 7, 3297 (2005).

----- AuxJ basis set information -----
Your calculation utilizes the auxiliary basis: def2/J
   F. Weigend, Phys. Chem. Chem. Phys. 8, 1057 (2006).

================================================================================
                                        WARNINGS
                       Please study these warnings very carefully!
================================================================================


================================================================================
                                       INPUT FILE
================================================================================
NAME = CS_PdOAc_003_freq_01.inp
|  1> !PBE0 def2-SV(p) freq d3 TightSCF SlowConv RIJCOSX defgrid2
|  2> 
|  3> %pal
|  4> nprocs 16
|  5> nprocs_group 2
|  6> end
|  7> 
|  8> %scf
|  9> MaxIter 1500
| 10> end
| 11> 
| 12> %maxcore 3500
| 13> 
| 14>  
| 15> 
| 16> * xyz -2 1
| 17>   Pd         -0.58859675474001      1.79069386988636      0.12525051881718
| 18>   O          -0.56312094691235      1.91643518477727     -1.91576266457436
| 19>   O           1.23773995991805      0.62626629361198     -2.35413883147574
| 20>   C           0.23646665555799      1.30841383567401     -2.66710874994333
| 21>   C          -0.02550837097319      1.44069674359657     -4.15587262637452
| 22>   H          -1.06674245939244      1.74180494896657     -4.34713597427350
| 23>   H           0.65379799036240      2.21452114823411     -4.55485166974199
| 24>   H           0.20918360744538      0.49280171799062     -4.66591205188907
| 25>   O          -0.29964826462258      3.77656776653293      0.21229542481214
| 26>   C          -1.29484101105228      4.58780479355271      0.15445475105350
| 27>   O          -2.48079441703085      4.31989642827978      0.03588215814912
| 28>   C          -0.83021832242902      6.04307906777114      0.25897333100322
| 29>   H          -0.08123947616209      6.25515935032835     -0.52325769893691
| 30>   H          -0.33359233772107      6.20329427569995      1.23180401677016
| 31>   H          -1.68905068599482      6.72621418918916      0.15897454019075
| 32>   O           3.44559011185834      2.00815674577063     -1.35551587102128
| 33>   Pd          2.25811503585100      0.60878190020572     -0.55809603411925
| 34>   O           4.51631426078922      3.93251528911954     -1.44753792406341
| 35>   C           3.73783441960455      3.17895243316367     -0.87536723793387
| 36>   H           1.97092402956651      3.71472004404809      0.26370166685263
| 37>   H           3.19201931924132      2.81680309631642      1.18524755967677
| 38>   C           3.05953325431406      3.59603297706349      0.41651102705983
| 39>   H           3.48564226500261      4.55481850360381      0.75607169673751
| 40>   O           1.17857294666871     -1.00974837703236      0.09728951430900
| 41>   C          -0.06568877503068     -1.10507134606857      0.18480944075761
| 42>   O          -0.92971201872185     -0.21240831522995     -0.02163213779956
| 43>   C          -0.61136353768528     -2.45208603241951      0.59724750560615
| 44>   H          -1.56722528777243     -2.65293522994513      0.08704433559233
| 45>   H           0.11862361036096     -3.25261574486518      0.40180365427404
| 46>   H          -0.79925876993274     -2.37024642628049      1.68135817694909
| 47>   O          -0.73939001544079      1.87105904457396      2.13434343056366
| 48>   C          -0.63541941199753      0.93778843558271      3.00819351903202
| 49>   O          -0.49203281331882     -0.26569638190006      2.84627546355495
| 50>   C          -0.68587444820057      1.50836658829373      4.43087250429646
| 51>   H          -1.51697420057274      2.22673524825013      4.53232097543007
| 52>   H          -0.78854077426807      0.69240863048125      5.16465466824389
| 53>   H           0.25114074900571      2.05935015995783      4.62695687727219
| 54>   O           3.30906709905053      0.56732564307542      1.15221593376544
| 55>   C           4.28950705775774     -0.25613003748045      1.28657995816729
| 56>   O           4.71437635957796     -1.06211865508199      0.47517533141923
| 57>   C           4.94107320973044     -0.11815076399701      2.66528150570845
| 58>   H           5.38497351128896      0.88825821148745      2.76265988277769
| 59>   H           4.17672043179701     -0.21724854339394      3.45471460204888
| 60>   H           5.72461305022212     -0.88215029639157      2.79440139825553
| 61> *
| 62> 
| 63>                          ****END OF INPUT****
================================================================================

                       ****************************
                       * Single Point Calculation *
                       ****************************

---------------------------------
CARTESIAN COORDINATES (ANGSTROEM)
---------------------------------
  Pd    -0.588597    1.790694    0.125251
  O     -0.563121    1.916435   -1.915763
  O      1.237740    0.626266   -2.354139
  C      0.236467    1.308414   -2.667109
  C     -0.025508    1.440697   -4.155873
  H     -1.066742    1.741805   -4.347136
  H      0.653798    2.214521   -4.554852
  H      0.209184    0.492802   -4.665912
  O     -0.299648    3.776568    0.212295
  C     -1.294841    4.587805    0.154455
  O     -2.480794    4.319896    0.035882
  C     -0.830218    6.043079    0.258973
  H     -0.081239    6.255159   -0.523258
  H     -0.333592    6.203294    1.231804
  H     -1.689051    6.726214    0.158975
  O      3.445590    2.008157   -1.355516
  Pd     2.258115    0.608782   -0.558096
  O      4.516314    3.932515   -1.447538
  C      3.737834    3.178952   -0.875367
  H      1.970924    3.714720    0.263702
  H      3.192019    2.816803    1.185248
  C      3.059533    3.596033    0.416511
  H      3.485642    4.554819    0.756072
  O      1.178573   -1.009748    0.097290
  C     -0.065689   -1.105071    0.184809
  O     -0.929712   -0.212408   -0.021632
  C     -0.611364   -2.452086    0.597248
  H     -1.567225   -2.652935    0.087044
  H      0.118624   -3.252616    0.401804
  H     -0.799259   -2.370246    1.681358
  O     -0.739390    1.871059    2.134343
  C     -0.635419    0.937788    3.008194
  O     -0.492033   -0.265696    2.846275
  C     -0.685874    1.508367    4.430873
  H     -1.516974    2.226735    4.532321
  H     -0.788541    0.692409    5.164655
  H      0.251141    2.059350    4.626957
  O      3.309067    0.567326    1.152216
  C      4.289507   -0.256130    1.286580
  O      4.714376   -1.062119    0.475175
  C      4.941073   -0.118151    2.665282
  H      5.384974    0.888258    2.762660
  H      4.176720   -0.217249    3.454715
  H      5.724613   -0.882150    2.794401

----------------------------
CARTESIAN COORDINATES (A.U.)
----------------------------
  NO LB      ZA    FRAG     MASS         X           Y           Z
   0 Pd   18.0000*   0   106.400   -1.112287    3.383921    0.236689
   1 O     8.0000    0    15.999   -1.064144    3.621538   -3.620267
   2 O     8.0000    0    15.999    2.338990    1.183472   -4.448678
   3 C     6.0000    0    12.011    0.446857    2.472544   -5.040105
   4 C     6.0000    0    12.011   -0.048204    2.722522   -7.853461
   5 H     1.0000    0     1.008   -2.015851    3.291534   -8.214896
   6 H     1.0000    0     1.008    1.235499    4.184838   -8.607422
   7 H     1.0000    0     1.008    0.395300    0.931260   -8.817296
   8 O     8.0000    0    15.999   -0.566253    7.136679    0.401180
   9 C     6.0000    0    12.011   -2.446895    8.669695    0.291877
  10 O     8.0000    0    15.999   -4.688022    8.163421    0.067807
  11 C     6.0000    0    12.011   -1.568885   11.419764    0.489389
  12 H     1.0000    0     1.008   -0.153520   11.820538   -0.988814
  13 H     1.0000    0     1.008   -0.630398   11.722527    2.327772
  14 H     1.0000    0     1.008   -3.191843   12.710703    0.300418
  15 O     8.0000    0    15.999    6.511222    3.794866   -2.561554
  16 Pd   18.0000*   0   106.400    4.267219    1.150431   -1.054649
  17 O     8.0000    0    15.999    8.534597    7.431377   -2.735450
  18 C     6.0000    0    12.011    7.063483    6.007349   -1.654204
  19 H     1.0000    0     1.008    3.724507    7.019804    0.498324
  20 H     1.0000    0     1.008    6.032042    5.322986    2.239793
  21 C     6.0000    0    12.011    5.781680    6.795517    0.787092
  22 H     1.0000    0     1.008    6.586909    8.607360    1.428768
  23 O     8.0000    0    15.999    2.227180   -1.908148    0.183851
  24 C     6.0000    0    12.011   -0.124134   -2.088282    0.349239
  25 O     8.0000    0    15.999   -1.756901   -0.401394   -0.040879
  26 C     6.0000    0    12.011   -1.155310   -4.633771    1.128634
  27 H     1.0000    0     1.008   -2.961627   -5.013321    0.164490
  28 H     1.0000    0     1.008    0.224166   -6.146553    0.759299
  29 H     1.0000    0     1.008   -1.510380   -4.479117    3.177306
  30 O     8.0000    0    15.999   -1.397245    3.535789    4.033325
  31 C     6.0000    0    12.011   -1.200769    1.772163    5.684662
  32 O     8.0000    0    15.999   -0.929807   -0.502093    5.378681
  33 C     6.0000    0    12.011   -1.296115    2.850400    8.373136
  34 H     1.0000    0     1.008   -2.866666    4.207920    8.564845
  35 H     1.0000    0     1.008   -1.490126    1.308463    9.759783
  36 H     1.0000    0     1.008    0.474587    3.891608    8.743681
  37 O     8.0000    0    15.999    6.253231    1.072090    2.177373
  38 C     6.0000    0    12.011    8.105994   -0.484016    2.431284
  39 O     8.0000    0    15.999    8.908880   -2.007113    0.897951
  40 C     6.0000    0    12.011    9.337275   -0.223273    5.036652
  41 H     1.0000    0     1.008   10.176125    1.678565    5.220671
  42 H     1.0000    0     1.008    7.892858   -0.410540    6.528464
  43 H     1.0000    0     1.008   10.817951   -1.667022    5.280653
* core charge reduced due to ECP

--------------------------------
INTERNAL COORDINATES (ANGSTROEM)
--------------------------------
 Pd     0   0   0     0.000000000000     0.00000000     0.00000000
 O      1   0   0     2.045041493426     0.00000000     0.00000000
 O      2   1   0     2.258275766417    99.70318861     0.00000000
 C      3   2   1     1.251328761370    25.71231414   173.65123281
 C      4   3   2     1.517414762687   115.53462256   178.53813247
 H      5   4   3     1.100643560140   110.95711151   160.72493031
 H      5   4   3     1.104285116630   108.02089197   280.28563346
 H      5   4   3     1.101692116647   110.02521523    37.64078688
 O      1   2   3     2.008671993876    88.89235231   117.94145508
 C      9   1   2     1.285246925729   120.70987299    85.71642753
 O     10   9   1     1.221605432668   128.14579199   359.37036056
 C     10   9   1     1.531215722732   111.21449559   179.21981034
 H     12  10   9     1.103554594302   109.88929985    55.58666290
 H     12  10   9     1.103950100643   109.54737362   298.37242404
 H     12  10   9     1.101937557662   110.27387186   177.27663900
 O      3   2   1     2.789528872827   106.17987328   292.60899137
 Pd    16   3   2     2.001056073883    47.66571734    92.95537647
 O     16   3   2     2.204103914227   143.32666057   304.73167910
 C     18  16   3     1.225262067916    30.10497358   100.28599090
 H     19  18  16     2.169446295521   127.64517430   214.72425232
 H     20  19  18     1.773858896325    65.61323877   239.24904380
 C     21  20  19     1.102591320948    36.61453387    38.50596906
 H     22  21  20     1.102787388069   110.69141956   118.87824955
 O     17  16   3     2.052944616336   172.14147883    75.47918268
 C     24  17  16     1.250972996526   127.26043906   228.81702207
 O     25  24  17     1.259365545670   128.09139361   354.88321002
 C     25  24  17     1.510733156179   116.50667507   175.30394379
 H     27  25  24     1.101961596481   110.45203993   214.82378585
 H     27  25  24     1.100875722252   111.12437107   338.63740259
 H     27  25  24     1.103312415934   105.28548292    97.64379879
 O      1   2   3     2.016346075654   173.17854596   157.90484341
 C     31   1   9     1.282738435186   130.07033396   198.37571821
 O     32  31   1     1.222764441453   129.44853626   355.31987452
 C     32  31   1     1.533662490296   111.01390151   174.23677634
 H     34  32  31     1.103209917602   110.63068741    46.75638473
 H     34  32  31     1.102163339779   110.19548851   169.28606693
 H     34  32  31     1.104549436361   108.80525706   289.07787242
 O     17  16   3     2.007831140283    92.48025806   178.12206767
 C     38  17  16     1.287398718938   120.04857977   268.98675397
 O     39  38  17     1.220044689198   128.19568330     0.73471716
 C     39  38  17     1.531141628818   111.12578454   180.20091192
 H     41  39  38     1.104259503912   109.42655503   296.13403622
 H     41  39  38     1.103295133957   109.96094390    53.74331444
 H     41  39  38     1.101953680419   110.21904576   175.52029009

---------------------------
INTERNAL COORDINATES (A.U.)
---------------------------
 Pd     0   0   0     0.000000000000     0.00000000     0.00000000
 O      1   0   0     3.864568355080     0.00000000     0.00000000
 O      2   1   0     4.267522733400    99.70318861     0.00000000
 C      3   2   1     2.364668662488    25.71231414   173.65123281
 C      4   3   2     2.867498333048   115.53462256   178.53813247
 H      5   4   3     2.079914899728   110.95711151   160.72493031
 H      5   4   3     2.086796444196   108.02089197   280.28563346
 H      5   4   3     2.081896384363   110.02521523    37.64078688
 O      1   2   3     3.795839961304    88.89235231   117.94145508
 C      9   1   2     2.428764704091   120.70987299    85.71642753
 O     10   9   1     2.308499711452   128.14579199   359.37036056
 C     10   9   1     2.893578367917   111.21449559   179.21981034
 H     12  10   9     2.085415957062   109.88929985    55.58666290
 H     12  10   9     2.086163355729   109.54737362   298.37242404
 H     12  10   9     2.082360200664   110.27387186   177.27663900
 O      3   2   1     5.271445612310   106.17987328   292.60899137
 Pd    16   3   2     3.781447958258    47.66571734    92.95537647
 O     16   3   2     4.165152768592   143.32666057   304.73167910
 C     18  16   3     2.315409750643    30.10497358   100.28599090
 H     19  18  16     4.099659360784   127.64517430   214.72425232
 H     20  19  18     3.352107514274    65.61323877   239.24904380
 C     21  20  19     2.083595634229    36.61453387    38.50596906
 H     22  21  20     2.083966147394   110.69141956   118.87824955
 O     17  16   3     3.879503092982   172.14147883    75.47918268
 C     24  17  16     2.363996364365   127.26043906   228.81702207
 O     25  24  17     2.379855983813   128.09139361   354.88321002
 C     25  24  17     2.854871926613   116.50667507   175.30394379
 H     27  25  24     2.082405627447   110.45203993   214.82378585
 H     27  25  24     2.080353622540   111.12437107   338.63740259
 H     27  25  24     2.084958306270   105.28548292    97.64379879
 O      1   2   3     3.810341874193   173.17854596   157.90484341
 C     31   1   9     2.424024343956   130.07033396   198.37571821
 O     32  31   1     2.310689920643   129.44853626   355.31987452
 C     32  31   1     2.898202088528   111.01390151   174.23677634
 H     34  32  31     2.084764612494   110.63068741    46.75638473
 H     34  32  31     2.082786867031   110.19548851   169.28606693
 H     34  32  31     2.087295936099   108.80525706   289.07787242
 O     17  16   3     3.794250978293    92.48025806   178.12206767
 C     38  17  16     2.432831003954   120.04857977   268.98675397
 O     39  38  17     2.305550333730   128.19568330     0.73471716
 C     39  38  17     2.893438350712   111.12578454   180.20091192
 H     41  39  38     2.086748043173   109.42655503   296.13403622
 H     41  39  38     2.084925648067   109.96094390    53.74331444
 H     41  39  38     2.082390668258   110.21904576   175.52029009

---------------------
BASIS SET INFORMATION
---------------------
There are 4 groups of distinct atoms

 Group   1 Type Pd  : 7s6p5d contracted to 5s3p2d pattern {31111/411/41}
 Group   2 Type O   : 7s4p1d contracted to 3s2p1d pattern {511/31/1}
 Group   3 Type C   : 7s4p1d contracted to 3s2p1d pattern {511/31/1}
 Group   4 Type H   : 4s contracted to 2s pattern {31}

Atom   0Pd   basis set group =>   1
Atom   1O    basis set group =>   2
Atom   2O    basis set group =>   2
Atom   3C    basis set group =>   3
Atom   4C    basis set group =>   3
Atom   5H    basis set group =>   4
Atom   6H    basis set group =>   4
Atom   7H    basis set group =>   4
Atom   8O    basis set group =>   2
Atom   9C    basis set group =>   3
Atom  10O    basis set group =>   2
Atom  11C    basis set group =>   3
Atom  12H    basis set group =>   4
Atom  13H    basis set group =>   4
Atom  14H    basis set group =>   4
Atom  15O    basis set group =>   2
Atom  16Pd   basis set group =>   1
Atom  17O    basis set group =>   2
Atom  18C    basis set group =>   3
Atom  19H    basis set group =>   4
Atom  20H    basis set group =>   4
Atom  21C    basis set group =>   3
Atom  22H    basis set group =>   4
Atom  23O    basis set group =>   2
Atom  24C    basis set group =>   3
Atom  25O    basis set group =>   2
Atom  26C    basis set group =>   3
Atom  27H    basis set group =>   4
Atom  28H    basis set group =>   4
Atom  29H    basis set group =>   4
Atom  30O    basis set group =>   2
Atom  31C    basis set group =>   3
Atom  32O    basis set group =>   2
Atom  33C    basis set group =>   3
Atom  34H    basis set group =>   4
Atom  35H    basis set group =>   4
Atom  36H    basis set group =>   4
Atom  37O    basis set group =>   2
Atom  38C    basis set group =>   3
Atom  39O    basis set group =>   2
Atom  40C    basis set group =>   3
Atom  41H    basis set group =>   4
Atom  42H    basis set group =>   4
Atom  43H    basis set group =>   4
---------------------------------
AUXILIARY/J BASIS SET INFORMATION
---------------------------------
There are 4 groups of distinct atoms

 Group   1 Type Pd  : 11s5p5d3f3g contracted to 8s5p5d2f3g pattern {41111111/11111/11111/21/111}
 Group   2 Type O   : 12s5p4d2f1g contracted to 6s4p3d1f1g pattern {711111/2111/211/2/1}
 Group   3 Type C   : 12s5p4d2f1g contracted to 6s4p3d1f1g pattern {711111/2111/211/2/1}
 Group   4 Type H   : 5s2p1d contracted to 3s1p1d pattern {311/2/1}

Atom   0Pd   basis set group =>   1
Atom   1O    basis set group =>   2
Atom   2O    basis set group =>   2
Atom   3C    basis set group =>   3
Atom   4C    basis set group =>   3
Atom   5H    basis set group =>   4
Atom   6H    basis set group =>   4
Atom   7H    basis set group =>   4
Atom   8O    basis set group =>   2
Atom   9C    basis set group =>   3
Atom  10O    basis set group =>   2
Atom  11C    basis set group =>   3
Atom  12H    basis set group =>   4
Atom  13H    basis set group =>   4
Atom  14H    basis set group =>   4
Atom  15O    basis set group =>   2
Atom  16Pd   basis set group =>   1
Atom  17O    basis set group =>   2
Atom  18C    basis set group =>   3
Atom  19H    basis set group =>   4
Atom  20H    basis set group =>   4
Atom  21C    basis set group =>   3
Atom  22H    basis set group =>   4
Atom  23O    basis set group =>   2
Atom  24C    basis set group =>   3
Atom  25O    basis set group =>   2
Atom  26C    basis set group =>   3
Atom  27H    basis set group =>   4
Atom  28H    basis set group =>   4
Atom  29H    basis set group =>   4
Atom  30O    basis set group =>   2
Atom  31C    basis set group =>   3
Atom  32O    basis set group =>   2
Atom  33C    basis set group =>   3
Atom  34H    basis set group =>   4
Atom  35H    basis set group =>   4
Atom  36H    basis set group =>   4
Atom  37O    basis set group =>   2
Atom  38C    basis set group =>   3
Atom  39O    basis set group =>   2
Atom  40C    basis set group =>   3
Atom  41H    basis set group =>   4
Atom  42H    basis set group =>   4
Atom  43H    basis set group =>   4
-------------------------
ECP PARAMETER INFORMATION
-------------------------

 Group 1, Type Pd ECP Def2-ECP (replacing 28 core electrons, lmax=3)

Atom   0Pd   ECP group =>   1
Atom  16Pd   ECP group =>   1



           ************************************************************
           *        Program running with 16 parallel MPI-processes    *
           *              working on a common directory               *
           ************************************************************
------------------------------------------------------------------------------
                             ORCA STARTUP CALCULATIONS
                           -- RI-GTO INTEGRALS CHOSEN --
------------------------------------------------------------------------------
------------------------------------------------------------------------------
                   ___                                                        
                  /   \      - P O W E R E D   B Y -                         
                 /     \                                                     
                 |  |  |   _    _      __       _____    __    __             
                 |  |  |  | |  | |    /  \     |  _  \  |  |  /  |          
                  \  \/   | |  | |   /    \    | | | |  |  | /  /          
                 / \  \   | |__| |  /  /\  \   | |_| |  |  |/  /          
                |  |  |   |  __  | /  /__\  \  |    /   |      \           
                |  |  |   | |  | | |   __   |  |    \   |  |\   \          
                \     /   | |  | | |  |  |  |  | |\  \  |  | \   \       
                 \___/    |_|  |_| |__|  |__|  |_| \__\ |__|  \__/        
                                                                              
                      - O R C A' S   B I G   F R I E N D -                    
                                      &                                       
                       - I N T E G R A L  F E E D E R -                       
                                                                              
 v1 FN, 2020, v2 2021, v3 2022-2024                                           
------------------------------------------------------------------------------


----------------------
SHARK INTEGRAL PACKAGE
----------------------

Number of atoms                             ...     44
Number of basis functions                   ...    420
Number of shells                            ...    200
Maximum angular momentum                    ...      2
Integral batch strategy                     ... SHARK/LIBINT Hybrid
RI-J (if used) integral strategy            ... SPLIT-RIJ (Revised 2003 algorithm where possible)
Printlevel                                  ...      1
Contraction scheme used                     ... SEGMENTED contraction
Prescreening option                         ... SCHWARTZ
   Thresh                                   ... 2.500e-11
   Tcut                                     ... 2.500e-12
   Tpresel                                  ... 2.500e-12 
Coulomb Range Separation                    ... NOT USED
Exchange Range Separation                   ... NOT USED
Multipole approximations                    ... NOT USED
Finite Nucleus Model                        ... NOT USED
CABS basis                                  ... NOT available
Auxiliary Coulomb fitting basis             ... AVAILABLE
   # of basis functions in Aux-J            ...   1552
   # of shells in Aux-J                     ...    496
   Maximum angular momentum in Aux-J        ...      4
Auxiliary J/K fitting basis                 ... NOT available
Auxiliary Correlation fitting basis         ... NOT available
Auxiliary 'external' fitting basis          ... NOT available

Checking pre-screening integrals            ... done (  0.1 sec) Dimension = 200
Check shell pair data                       ... done (  0.0 sec)
Shell pair information
Shell pair cut-off parameter TPreSel        ...   2.5e-12
Total number of shell pairs                 ...     20100
Shell pairs after pre-screening             ...     14451
Total number of primitive shell pairs       ...     79002
Primitive shell pairs kept                  ...     33552
          la=0 lb=0:   4887 shell pairs
          la=1 lb=0:   4932 shell pairs
          la=1 lb=1:   1259 shell pairs
          la=2 lb=0:   2076 shell pairs
          la=2 lb=1:   1086 shell pairs
          la=2 lb=2:    211 shell pairs

Calculating one electron integrals          ... done (  0.0 sec)
Calculating ECP integrals                   ... done (  1.2 sec)
Calculating RI/J V-Matrix + Cholesky decomp.... done (  0.2 sec)
Calculating Nuclear repulsion               ... done (  0.0 sec) ENN=   3254.998431094849 Eh

Diagonalization of the overlap matrix:
Smallest eigenvalue                        ... 2.575e-03
Time for diagonalization                   ...    0.055 sec
Threshold for overlap eigenvalues          ... 1.000e-07
Number of eigenvalues below threshold      ... 0
Time for construction of square roots      ...    0.033 sec
Total time needed                          ...    0.160 sec

-------------------
DFT GRID GENERATION
-------------------

General Integration Accuracy     IntAcc      ... 4.388
Radial Grid Type                 RadialGrid  ... OptM3 with GC (2021)
Angular Grid (max. ang.)         AngularGrid ... 4 (Lebedev-302)
Angular grid pruning method      GridPruning ... 4 (adaptive)
Weight generation scheme         WeightScheme... mBecke (2022)
Basis function cutoff            BFCut       ... 1.0000e-11
Integration weight cutoff        WCut        ... 1.0000e-14
Partially contracted basis set               ... off
Rotationally invariant grid construction     ... off
Angular grids for H and He will be reduced by one unit

Total number of grid points                  ...   220819
Total number of batches                      ...     3472
Average number of points per batch           ...       63
Average number of grid points per atom       ...     5019

--------------------
COSX GRID GENERATION
--------------------

GRIDX 1
-------
General Integration Accuracy     IntAcc      ... 3.816
Radial Grid Type                 RadialGrid  ... OptM3 with GC (2021)
Angular Grid (max. ang.)         AngularGrid ... 1 (Lebedev-50)
Angular grid pruning method      GridPruning ... 4 (adaptive)
Weight generation scheme         WeightScheme... mBecke (2022)
Basis function cutoff            BFCut       ... 1.0000e-11
Integration weight cutoff        WCut        ... 1.0000e-14
Partially contracted basis set               ... on
Rotationally invariant grid construction     ... off
Angular grids for H and He will be reduced by one unit

Total number of grid points                  ...    34299
Total number of batches                      ...      294
Average number of points per batch           ...      116
Average number of grid points per atom       ...      780
UseSFitting                                  ... on

GRIDX 2
-------
General Integration Accuracy     IntAcc      ... 4.020
Radial Grid Type                 RadialGrid  ... OptM3 with GC (2021)
Angular Grid (max. ang.)         AngularGrid ... 2 (Lebedev-110)
Angular grid pruning method      GridPruning ... 4 (adaptive)
Weight generation scheme         WeightScheme... mBecke (2022)
Basis function cutoff            BFCut       ... 1.0000e-11
Integration weight cutoff        WCut        ... 1.0000e-14
Partially contracted basis set               ... on
Rotationally invariant grid construction     ... off
Angular grids for H and He will be reduced by one unit

Total number of grid points                  ...    64717
Total number of batches                      ...      525
Average number of points per batch           ...      123
Average number of grid points per atom       ...     1471
UseSFitting                                  ... on

GRIDX 3
-------
General Integration Accuracy     IntAcc      ... 4.338
Radial Grid Type                 RadialGrid  ... OptM3 with GC (2021)
Angular Grid (max. ang.)         AngularGrid ... 3 (Lebedev-194)
Angular grid pruning method      GridPruning ... 4 (adaptive)
Weight generation scheme         WeightScheme... mBecke (2022)
Basis function cutoff            BFCut       ... 1.0000e-11
Integration weight cutoff        WCut        ... 1.0000e-14
Partially contracted basis set               ... on
Rotationally invariant grid construction     ... off
Angular grids for H and He will be reduced by one unit

Total number of grid points                  ...   131524
Total number of batches                      ...     1054
Average number of points per batch           ...      124
Average number of grid points per atom       ...     2989
UseSFitting                                  ... on
Initializing property integral containers    ... done (  0.3 sec)

SHARK setup successfully completed in   7.2 seconds

Maximum memory used throughout the entire STARTUP-calculation: 58.4 MB


           ************************************************************
           *        Program running with 16 parallel MPI-processes    *
           *              working on a common directory               *
           ************************************************************
-------------------------------------------------------------------------------
                                 ORCA GUESS
                   Start orbitals & Density for SCF / CASSCF
-------------------------------------------------------------------------------

------------
SCF SETTINGS
------------
Hamiltonian:
 Density Functional     Method          .... DFT(GTOs)
 Exchange Functional    Exchange        .... PBE
   PBE kappa parameter   XKappa         ....  0.804000
   PBE mue parameter    XMuePBE         ....  0.219520
 Correlation Functional Correlation     .... PBE
   PBE beta parameter  CBetaPBE         ....  0.066725
 LDA part of GGA corr.  LDAOpt          .... PW91-LDA
 Gradients option       PostSCFGGA      .... off
 Hybrid DFT is turned on
   Fraction HF Exchange ScalHFX         ....  0.250000
   Scaling of DF-GGA-X  ScalDFX         ....  0.750000
   Scaling of DF-GGA-C  ScalDFC         ....  1.000000
   Scaling of DF-LDA-C  ScalLDAC        ....  1.000000
   Perturbative correction              ....  0.000000
   NL short-range parameter             ....  6.900000
 RI-approximation to the Coulomb term is turned on
   Number of AuxJ basis functions       .... 1552
   RIJ-COSX (HFX calculated with COS-X)).... on


General Settings:
 Integral files         IntName         .... CS_PdOAc_003_freq_01
 Hartree-Fock type      HFTyp           .... RHF
 Total Charge           Charge          ....   -2
 Multiplicity           Mult            ....    1
 Number of Electrons    NEL             ....  224
 Basis Dimension        Dim             ....  420
 Nuclear Repulsion      ENuc            ....   3254.9984310948 Eh

Convergence Acceleration:
 AO-DIIS                CNVDIIS         .... on
   Start iteration      DIISMaxIt       ....     0
   Startup error        DIISStart       ....  0.200000
   # of expansion vecs  DIISMaxEq       ....     5
   Bias factor          DIISBfac        ....   1.050
   Max. coefficient     DIISMaxC        ....  10.000
 MO-DIIS                CNVKDIIS        .... off
 Trust-Rad. Augm. Hess. CNVTRAH         .... auto
   Auto Start mean grad. ratio tolernc. ....  1.125000
   Auto Start start iteration           ....    50
   Auto Start num. interpolation iter.  ....    10
   Max. Number of Micro iterations      ....    24
   Max. Number of Macro iterations      .... Maxiter - #DIIS iter
   Number of Davidson start vectors     ....     2
   Converg. threshold    (grad. norm)   ....   1.000e-05
   Grad. Scal. Fac. for Micro threshold ....   0.100
   Minimum threshold for Micro iter.    ....   1.000e-02
   NR start threshold (gradient norm)   ....   1.000e-04
   Initial trust radius                 ....   0.400
   Minimum AH scaling param. (alpha)    ....   1.000
   Maximum AH scaling param. (alpha)    .... 1000.000
   Quad. conv. algorithm                .... NR
   White noise on init. David. guess    .... on
   Maximum white noise                  ....   0.010
   Pseudo random numbers                .... off
   Inactive MOs                         .... canonical
   Orbital update algorithm             .... Taylor
   Preconditioner                       .... Diag
   Full preconditioner red. dimension   ....   250
 SOSCF                  CNVSOSCF        .... on
   Start iteration      SOSCFMaxIt      ....   150
   Startup grad/error   SOSCFStart      ....  0.001000
   Hessian update       SOSCFHessUp     .... L-BFGS
 Level Shifting         CNVShift        .... on
   Level shift para.    LevelShift      ....    0.2500
   Turn off err/grad.   ShiftErr        ....    0.0000
 Zerner damping         CNVZerner       .... off
 Static damping         CNVDamp         .... on
   Fraction old density DampFac         ....    0.8500
   Max. Damping (<1)    DampMax         ....    0.9800
   Min. Damping (>=0)   DampMin         ....    0.0000
   Turn off err/grad.   DampErr         ....    0.0300

SCF Procedure:
 Maximum # iterations   MaxIter         ....  1500
 SCF integral mode      SCFMode         .... Direct
   Integral package                     .... SHARK and LIBINT hybrid scheme
 Reset frequency        DirectResetFreq ....    20
 Integral Threshold     Thresh          ....  2.500e-11 Eh
 Primitive CutOff       TCut            ....  2.500e-12 Eh

Convergence Tolerance:
 Convergence Check Mode ConvCheckMode   .... Total+1el-Energy
 Convergence forced     ConvForced      .... 0
 Energy Change          TolE            ....  1.000e-08 Eh
 1-El. energy change                    ....  1.000e-05 Eh
 Orbital Gradient       TolG            ....  1.000e-05
 Orbital Rotation angle TolX            ....  1.000e-05
 DIIS Error             TolErr          ....  5.000e-07

------------------------------
INITIAL GUESS: MODEL POTENTIAL
------------------------------
Loading Hartree-Fock densities                     ... done
Atomic calculation to generate a density for atom 0 (Pd with ECP)
  Multiplicity assumed   :    3
  Atomic configuration   : 1s2 2s2 2p6 3s2 3p6 4s2 3d10 4p6 5s2 4d8 
  Number of open shells  : 1
  Command: /opt/apps/software/ORCA/6.0.0-gompi-2023b/bin/orca CS_PdOAc_003_freq_01_atom46.inp "" > CS_PdOAc_003_freq_01_atom46.out
Returned from the atomic calculation with res=0
Calculating cut-offs                               ... done
Initializing the effective Hamiltonian             ... done
Setting up the integral package (SHARK)            ... done
Starting the Coulomb interaction                   ... done (   0.3 sec)
Making the grid                                    ... done (   0.6 sec)
Mapping shells                                     ... done
Starting the XC term evaluation                    ... done (   0.1 sec)
  promolecular density results
     # of electrons  =    277.984558225
     EX              =   -441.550653515
     EC              =    -11.126272898
     EX+EC           =   -452.676926413
Transforming the Hamiltonian                       ... done (   0.1 sec)
Diagonalizing the Hamiltonian                      ... done (   0.0 sec)
Back transforming the eigenvectors                 ... done (   0.1 sec)
Now organizing SCF variables                       ... done
                      ------------------
                      INITIAL GUESS DONE (  12.6 sec)
                      ------------------
             **** ENERGY FILE WAS UPDATED (CS_PdOAc_003_freq_01.en.tmp) ****
Finished Guess after  13.8 sec
Maximum memory used throughout the entire GUESS-calculation: 34.7 MB


           ************************************************************
           *        Program running with 16 parallel MPI-processes    *
           *              working on a common directory               *
           ************************************************************

-------------------------------------------------------------------------------------------
                                      ORCA LEAN-SCF
                              memory conserving SCF solver
-------------------------------------------------------------------------------------------

----------------------------------------D-I-I-S--------------------------------------------
Iteration    Energy (Eh)           Delta-E    RMSDP     MaxDP     DIISErr   Damp  Time(sec)
-------------------------------------------------------------------------------------------
               ***  Starting incremental Fock matrix formation  ***
    1    -1623.3352092647610334     0.00e+00  1.58e-03  6.83e-02  4.66e-01  0.850   6.0
    2    -1623.5956259137219604    -2.60e-01  1.64e-03  9.25e-02  3.94e-01  0.850   5.0
                               ***Turning on AO-DIIS***
    3    -1623.7606272869634267    -1.65e-01  8.57e-04  4.72e-02  3.32e-01  0.850   5.3
    4    -1623.8650492095448499    -1.04e-01  5.26e-04  2.40e-02  2.81e-01  0.850   6.1
    5    -1623.9399949657681645    -7.49e-02  3.67e-04  1.36e-02  2.38e-01  0.850   6.1
    6    -1623.9989461085060611    -5.90e-02  2.88e-04  1.13e-02  2.02e-01  0.850   4.7
    7    -1624.0473923755289434    -4.84e-02  2.47e-04  9.71e-03  1.72e-01  0.850   5.6
    8    -1624.0876588908831764    -4.03e-02  2.13e-04  8.62e-03  1.46e-01  0.850   4.6
    9    -1624.1208349013668339    -3.32e-02  1.81e-04  7.47e-03  1.24e-01  0.850   5.8
   10    -1624.1481792363192653    -2.73e-02  1.52e-04  6.25e-03  1.06e-01  0.850   4.6
   11    -1624.1708339056576733    -2.27e-02  1.26e-04  5.22e-03  8.97e-02  0.850   4.7
   12    -1624.1896981957943353    -1.89e-02  1.05e-04  4.41e-03  7.62e-02  0.850   4.9
   13    -1624.2054577071921813    -1.58e-02  8.85e-05  3.78e-03  6.48e-02  0.850   6.3
   14    -1624.2186540936918391    -1.32e-02  7.45e-05  3.23e-03  5.51e-02  0.850   6.0
   15    -1624.2297305369374953    -1.11e-02  6.26e-05  2.74e-03  4.68e-02  0.850   5.9
   16    -1624.2390485918276681    -9.32e-03  5.26e-05  2.32e-03  3.97e-02  0.850   4.5
   17    -1624.2469016479817583    -7.85e-03  4.42e-05  1.96e-03  3.38e-02  0.850   5.2
   18    -1624.2535291196809339    -6.63e-03  3.71e-05  1.67e-03  2.87e-02  0.850   5.6
   19    -1624.2591285482858439    -5.60e-03  2.08e-04  9.48e-03  2.44e-02  0.000   4.6
                              *** Initializing SOSCF ***
---------------------------------------S-O-S-C-F--------------------------------------
Iteration    Energy (Eh)           Delta-E    RMSDP     MaxDP     MaxGrad    Time(sec)
--------------------------------------------------------------------------------------
   20    -1624.2903201781200551    -3.12e-02  1.46e-05  7.61e-04  4.98e-04     5.7
               *** Restarting incremental Fock matrix formation ***
   21    -1624.2904137473833543    -9.36e-05  1.14e-05  6.38e-04  3.01e-05     5.9
   22    -1624.2904137260002244     2.14e-08  4.15e-06  1.64e-04  4.56e-05     5.4
   23    -1624.2904141473291020    -4.21e-07  1.98e-06  8.18e-05  1.19e-05     4.2
   24    -1624.2904141217186407     2.56e-08  1.06e-06  4.40e-05  1.73e-05     4.7
   25    -1624.2904141844064725    -6.27e-08  3.19e-07  1.15e-05  1.25e-06     5.0
                  *** Gradient check signals convergence ***

               *****************************************************
               *                     SUCCESS                       *
               *           SCF CONVERGED AFTER  25 CYCLES          *
               *****************************************************

Recomputing exchange energy using gridx3       ... done (    5.625 sec)
Old exchange energy                            :    -47.790492816 Eh
New exchange energy                            :    -47.790463688 Eh
Exchange energy change after final integration :      0.000029128 Eh
Total energy after final integration           :  -1624.290385057 Eh
             **** ENERGY FILE WAS UPDATED (CS_PdOAc_003_freq_01.en.tmp) ****

----------------
TOTAL SCF ENERGY
----------------

Total Energy       :      -1624.29038505651920 Eh          -44199.18842 eV

Components:
Nuclear Repulsion  :       3254.99843109484937 Eh           88573.01027 eV
Electronic Energy  :      -4879.28884527925584 Eh         -132772.19949 eV
One Electron Energy:      -8869.97550633580431 Eh         -241364.30425 eV
Two Electron Energy:       3990.68666105654847 Eh          108592.10476 eV

Virial components:
Potential Energy   :      -3078.17725441017228 Eh          -83761.46144 eV
Kinetic Energy     :       1453.88686935365286 Eh           39562.27302 eV
Virial Ratio       :          2.11720548503105

DFT components:
N(Alpha)           :      111.999813558498 electrons
N(Beta)            :      111.999813558498 electrons
N(Total)           :      223.999627116996 electrons
E(X)               :     -143.503543754070 Eh       
E(C)               :       -7.939956330184 Eh       
E(XC)              :     -151.443500084253 Eh       

---------------
SCF CONVERGENCE
---------------

  Last Energy change         ...    6.2688e-08  Tolerance :   1.0000e-08
  Last MAX-Density change    ...    1.1548e-05  Tolerance :   1.0000e-07
  Last RMS-Density change    ...    3.1949e-07  Tolerance :   5.0000e-09
  Last DIIS Error            ...    4.9820e-04  Tolerance :   5.0000e-07
  Last Orbital Gradient      ...    1.2529e-06  Tolerance :   1.0000e-05
  Last Orbital Rotation      ...    7.8507e-06  Tolerance :   1.0000e-05


----------------
ORBITAL ENERGIES
----------------

  NO   OCC          E(Eh)            E(eV) 
   0   2.0000     -19.005607      -517.1689 
   1   2.0000     -19.001212      -517.0493 
   2   2.0000     -18.995086      -516.8826 
   3   2.0000     -18.994086      -516.8554 
   4   2.0000     -18.976998      -516.3904 
   5   2.0000     -18.976163      -516.3677 
   6   2.0000     -18.974981      -516.3355 
   7   2.0000     -18.960331      -515.9368 
   8   2.0000     -18.943447      -515.4774 
   9   2.0000     -18.943343      -515.4746 
  10   2.0000     -18.939773      -515.3774 
  11   2.0000     -18.919725      -514.8319 
  12   2.0000     -10.148159      -276.1454 
  13   2.0000     -10.139134      -275.8999 
  14   2.0000     -10.113716      -275.2082 
  15   2.0000     -10.112657      -275.1794 
  16   2.0000     -10.109113      -275.0829 
  17   2.0000     -10.090290      -274.5708 
  18   2.0000     -10.044871      -273.3348 
  19   2.0000     -10.026519      -272.8355 
  20   2.0000     -10.026167      -272.8259 
  21   2.0000     -10.025485      -272.8073 
  22   2.0000     -10.023656      -272.7575 
  23   2.0000      -9.978606      -271.5317 
  24   2.0000      -3.296721       -89.7083 
  25   2.0000      -3.290560       -89.5407 
  26   2.0000      -1.976978       -53.7963 
  27   2.0000      -1.975732       -53.7624 
  28   2.0000      -1.970663       -53.6245 
  29   2.0000      -1.969586       -53.5952 
  30   2.0000      -1.930372       -52.5281 
  31   2.0000      -1.924649       -52.3724 
  32   2.0000      -0.887893       -24.1608 
  33   2.0000      -0.877345       -23.8738 
  34   2.0000      -0.847490       -23.0614 
  35   2.0000      -0.845246       -23.0003 
  36   2.0000      -0.843938       -22.9647 
  37   2.0000      -0.824448       -22.4344 
  38   2.0000      -0.799866       -21.7655 
  39   2.0000      -0.789370       -21.4798 
  40   2.0000      -0.760234       -20.6870 
  41   2.0000      -0.758175       -20.6310 
  42   2.0000      -0.755714       -20.5640 
  43   2.0000      -0.730406       -19.8754 
  44   2.0000      -0.559630       -15.2283 
  45   2.0000      -0.545078       -14.8323 
  46   2.0000      -0.535115       -14.5612 
  47   2.0000      -0.533487       -14.5169 
  48   2.0000      -0.532390       -14.4871 
  49   2.0000      -0.497382       -13.5345 
  50   2.0000      -0.366225        -9.9655 
  51   2.0000      -0.354944        -9.6585 
  52   2.0000      -0.337376        -9.1805 
  53   2.0000      -0.329289        -8.9604 
  54   2.0000      -0.327410        -8.9093 
  55   2.0000      -0.310712        -8.4549 
  56   2.0000      -0.304067        -8.2741 
  57   2.0000      -0.292797        -7.9674 
  58   2.0000      -0.282894        -7.6979 
  59   2.0000      -0.281305        -7.6547 
  60   2.0000      -0.273327        -7.4376 
  61   2.0000      -0.269663        -7.3379 
  62   2.0000      -0.259257        -7.0548 
  63   2.0000      -0.256756        -6.9867 
  64   2.0000      -0.255573        -6.9545 
  65   2.0000      -0.251551        -6.8450 
  66   2.0000      -0.250039        -6.8039 
  67   2.0000      -0.248503        -6.7621 
  68   2.0000      -0.244376        -6.6498 
  69   2.0000      -0.239965        -6.5298 
  70   2.0000      -0.239251        -6.5104 
  71   2.0000      -0.236557        -6.4371 
  72   2.0000      -0.231158        -6.2901 
  73   2.0000      -0.218348        -5.9416 
  74   2.0000      -0.217236        -5.9113 
  75   2.0000      -0.211337        -5.7508 
  76   2.0000      -0.205805        -5.6002 
  77   2.0000      -0.204282        -5.5588 
  78   2.0000      -0.202811        -5.5188 
  79   2.0000      -0.198797        -5.4095 
  80   2.0000      -0.185618        -5.0509 
  81   2.0000      -0.176449        -4.8014 
  82   2.0000      -0.173170        -4.7122 
  83   2.0000      -0.172280        -4.6880 
  84   2.0000      -0.164683        -4.4813 
  85   2.0000      -0.145257        -3.9527 
  86   2.0000      -0.143117        -3.8944 
  87   2.0000      -0.136425        -3.7123 
  88   2.0000      -0.131958        -3.5907 
  89   2.0000      -0.119916        -3.2631 
  90   2.0000      -0.112724        -3.0674 
  91   2.0000      -0.106677        -2.9028 
  92   2.0000      -0.098757        -2.6873 
  93   2.0000      -0.088024        -2.3953 
  94   2.0000      -0.083673        -2.2768 
  95   2.0000      -0.081834        -2.2268 
  96   2.0000      -0.078922        -2.1476 
  97   2.0000      -0.077137        -2.0990 
  98   2.0000      -0.072905        -1.9838 
  99   2.0000      -0.053929        -1.4675 
 100   2.0000      -0.052505        -1.4287 
 101   2.0000      -0.048018        -1.3066 
 102   2.0000      -0.046075        -1.2538 
 103   2.0000      -0.044647        -1.2149 
 104   2.0000      -0.039972        -1.0877 
 105   2.0000      -0.036279        -0.9872 
 106   2.0000      -0.031959        -0.8697 
 107   2.0000      -0.027540        -0.7494 
 108   2.0000      -0.025704        -0.6994 
 109   2.0000      -0.021421        -0.5829 
 110   2.0000      -0.015987        -0.4350 
 111   2.0000       0.003618         0.0985 
 112   0.0000       0.158094         4.3020 
 113   0.0000       0.168698         4.5905 
 114   0.0000       0.231049         6.2872 
 115   0.0000       0.241265         6.5651 
 116   0.0000       0.246571         6.7095 
 117   0.0000       0.254063         6.9134 
 118   0.0000       0.258198         7.0259 
 119   0.0000       0.263073         7.1586 
 120   0.0000       0.264542         7.1986 
 121   0.0000       0.265016         7.2115 
 122   0.0000       0.274362         7.4658 
*Only the first 10 virtual orbitals were printed.

                    ********************************
                    * MULLIKEN POPULATION ANALYSIS *
                    ********************************

-----------------------
MULLIKEN ATOMIC CHARGES
-----------------------
   0 Pd:    0.395515
   1 O :   -0.362099
   2 O :   -0.362219
   3 C :    0.343367
   4 C :   -0.360346
   5 H :    0.121466
   6 H :    0.144459
   7 H :    0.120337
   8 O :   -0.412921
   9 C :    0.285113
  10 O :   -0.348470
  11 C :   -0.363061
  12 H :    0.125557
  13 H :    0.120035
  14 H :    0.085647
  15 O :   -0.403363
  16 Pd:    0.387033
  17 O :   -0.370470
  18 C :    0.245096
  19 H :    0.236149
  20 H :    0.176911
  21 C :   -0.495583
  22 H :    0.071388
  23 O :   -0.354584
  24 C :    0.361092
  25 O :   -0.380678
  26 C :   -0.357576
  27 H :    0.105131
  28 H :    0.111311
  29 H :    0.166755
  30 O :   -0.406312
  31 C :    0.271484
  32 O :   -0.350318
  33 C :   -0.368811
  34 H :    0.112836
  35 H :    0.087444
  36 H :    0.128031
  37 O :   -0.417627
  38 C :    0.287561
  39 O :   -0.342179
  40 C :   -0.363620
  41 H :    0.117887
  42 H :    0.125828
  43 H :    0.086800
Sum of atomic charges:   -2.0000000

--------------------------------
MULLIKEN REDUCED ORBITAL CHARGES
--------------------------------
  0 Pds       :     2.476377  s :     2.476377
      pz      :     2.149599  p :     6.450029
      px      :     2.121401
      py      :     2.179029
      dz2     :     1.081150  d :     8.678079
      dxz     :     1.991010
      dyz     :     1.993624
      dx2y2   :     1.627769
      dxy     :     1.984526

  1 O s       :     3.779344  s :     3.779344
      pz      :     1.494841  p :     4.567268
      px      :     1.532104
      py      :     1.540323
      dz2     :     0.002147  d :     0.015487
      dxz     :     0.003961
      dyz     :     0.003079
      dx2y2   :     0.003148
      dxy     :     0.003152

  2 O s       :     3.775737  s :     3.775737
      pz      :     1.675558  p :     4.571159
      px      :     1.387081
      py      :     1.508520
      dz2     :     0.002489  d :     0.015323
      dxz     :     0.002132
      dyz     :     0.001586
      dx2y2   :     0.004324
      dxy     :     0.004794

  3 C s       :     3.017112  s :     3.017112
      pz      :     0.892784  p :     2.494444
      px      :     0.807308
      py      :     0.794352
      dz2     :     0.032055  d :     0.145076
      dxz     :     0.033208
      dyz     :     0.021032
      dx2y2   :     0.033643
      dxy     :     0.025139

  4 C s       :     3.118912  s :     3.118912
      pz      :     1.055640  p :     3.212640
      px      :     1.074038
      py      :     1.082962
      dz2     :     0.007254  d :     0.028794
      dxz     :     0.003947
      dyz     :     0.006110
      dx2y2   :     0.005728
      dxy     :     0.005755

  5 H s       :     0.878534  s :     0.878534

  6 H s       :     0.855541  s :     0.855541

  7 H s       :     0.879663  s :     0.879663

  8 O s       :     3.790384  s :     3.790384
      pz      :     1.665402  p :     4.608526
      px      :     1.508794
      py      :     1.434330
      dz2     :     0.001620  d :     0.014011
      dxz     :     0.002527
      dyz     :     0.001720
      dx2y2   :     0.003061
      dxy     :     0.005083

  9 C s       :     3.005206  s :     3.005206
      pz      :     0.808522  p :     2.563993
      px      :     0.869403
      py      :     0.886068
      dz2     :     0.007583  d :     0.145688
      dxz     :     0.033796
      dyz     :     0.009143
      dx2y2   :     0.044113
      dxy     :     0.051052

 10 O s       :     3.773356  s :     3.773356
      pz      :     1.471941  p :     4.558340
      px      :     1.335965
      py      :     1.750433
      dz2     :     0.001911  d :     0.016774
      dxz     :     0.005029
      dyz     :     0.000357
      dx2y2   :     0.005525
      dxy     :     0.003953

 11 C s       :     3.121158  s :     3.121158
      pz      :     1.086339  p :     3.213054
      px      :     1.058916
      py      :     1.067800
      dz2     :     0.005946  d :     0.028848
      dxz     :     0.007736
      dyz     :     0.002577
      dx2y2   :     0.004440
      dxy     :     0.008148

 12 H s       :     0.874443  s :     0.874443

 13 H s       :     0.879965  s :     0.879965

 14 H s       :     0.914353  s :     0.914353

 15 O s       :     3.788744  s :     3.788744
      pz      :     1.649816  p :     4.601506
      px      :     1.625461
      py      :     1.326229
      dz2     :     0.001669  d :     0.013112
      dxz     :     0.001433
      dyz     :     0.004012
      dx2y2   :     0.003526
      dxy     :     0.002472

 16 Pds       :     2.476255  s :     2.476255
      pz      :     2.149857  p :     6.444031
      px      :     2.163719
      py      :     2.130455
      dz2     :     1.673216  d :     8.692681
      dxz     :     1.480570
      dyz     :     1.915591
      dx2y2   :     1.926643
      dxy     :     1.696661

 17 O s       :     3.752915  s :     3.752915
      pz      :     1.608753  p :     4.601231
      px      :     1.428714
      py      :     1.563764
      dz2     :     0.002354  d :     0.016324
      dxz     :     0.002950
      dyz     :     0.003351
      dx2y2   :     0.003522
      dxy     :     0.004147

 18 C s       :     3.022557  s :     3.022557
      pz      :     0.924309  p :     2.590263
      px      :     0.839963
      py      :     0.825991
      dz2     :     0.026453  d :     0.142084
      dxz     :     0.018835
      dyz     :     0.030805
      dx2y2   :     0.035868
      dxy     :     0.030123

 19 H s       :     0.763851  s :     0.763851

 20 H s       :     0.823089  s :     0.823089

 21 C s       :     3.177492  s :     3.177492
      pz      :     1.084338  p :     3.289625
      px      :     1.146738
      py      :     1.058549
      dz2     :     0.005531  d :     0.028467
      dxz     :     0.003865
      dyz     :     0.008141
      dx2y2   :     0.007648
      dxy     :     0.003282

 22 H s       :     0.928612  s :     0.928612

 23 O s       :     3.774190  s :     3.774190
      pz      :     1.581344  p :     4.564952
      px      :     1.285337
      py      :     1.698271
      dz2     :     0.001783  d :     0.015442
      dxz     :     0.004399
      dyz     :     0.000483
      dx2y2   :     0.005770
      dxy     :     0.003008

 24 C s       :     3.020494  s :     3.020494
      pz      :     0.768314  p :     2.474191
      px      :     0.825771
      py      :     0.880106
      dz2     :     0.009662  d :     0.144223
      dxz     :     0.032300
      dyz     :     0.012341
      dx2y2   :     0.044613
      dxy     :     0.045306

 25 O s       :     3.776935  s :     3.776935
      pz      :     1.614769  p :     4.588744
      px      :     1.562754
      py      :     1.411221
      dz2     :     0.001713  d :     0.014999
      dxz     :     0.002542
      dyz     :     0.002363
      dx2y2   :     0.002843
      dxy     :     0.005538

 26 C s       :     3.109106  s :     3.109106
      pz      :     1.130678  p :     3.219761
      px      :     1.051589
      py      :     1.037494
      dz2     :     0.008134  d :     0.028710
      dxz     :     0.004357
      dyz     :     0.002792
      dx2y2   :     0.005551
      dxy     :     0.007876

 27 H s       :     0.894869  s :     0.894869

 28 H s       :     0.888689  s :     0.888689

 29 H s       :     0.833245  s :     0.833245

 30 O s       :     3.782842  s :     3.782842
      pz      :     1.422744  p :     4.609665
      px      :     1.645654
      py      :     1.541266
      dz2     :     0.002125  d :     0.013806
      dxz     :     0.001987
      dyz     :     0.005026
      dx2y2   :     0.002336
      dxy     :     0.002332

 31 C s       :     3.019584  s :     3.019584
      pz      :     0.885385  p :     2.562582
      px      :     0.806346
      py      :     0.870852
      dz2     :     0.027973  d :     0.146350
      dxz     :     0.010127
      dyz     :     0.053117
      dx2y2   :     0.022328
      dxy     :     0.032805

 32 O s       :     3.766294  s :     3.766294
      pz      :     1.773676  p :     4.567587
      px      :     1.476855
      py      :     1.317057
      dz2     :     0.002102  d :     0.016436
      dxz     :     0.000184
      dyz     :     0.003617
      dx2y2   :     0.005432
      dxy     :     0.005102

 33 C s       :     3.130361  s :     3.130361
      pz      :     1.064664  p :     3.209597
      px      :     1.082034
      py      :     1.062899
      dz2     :     0.006991  d :     0.028854
      dxz     :     0.002338
      dyz     :     0.008382
      dx2y2   :     0.002639
      dxy     :     0.008504

 34 H s       :     0.887164  s :     0.887164

 35 H s       :     0.912556  s :     0.912556

 36 H s       :     0.871969  s :     0.871969

 37 O s       :     3.793394  s :     3.793394
      pz      :     1.643805  p :     4.610178
      px      :     1.423965
      py      :     1.542408
      dz2     :     0.002581  d :     0.014054
      dxz     :     0.001793
      dyz     :     0.001563
      dx2y2   :     0.003533
      dxy     :     0.004584

 38 C s       :     3.006030  s :     3.006030
      pz      :     0.897246  p :     2.560833
      px      :     0.827259
      py      :     0.836328
      dz2     :     0.034009  d :     0.145576
      dxz     :     0.027205
      dyz     :     0.023106
      dx2y2   :     0.032361
      dxy     :     0.028894

 39 O s       :     3.773357  s :     3.773357
      pz      :     1.512518  p :     4.551887
      px      :     1.606812
      py      :     1.432557
      dz2     :     0.003262  d :     0.016935
      dxz     :     0.003200
      dyz     :     0.005029
      dx2y2   :     0.002978
      dxy     :     0.002467

 40 C s       :     3.121445  s :     3.121445
      pz      :     1.088938  p :     3.213303
      px      :     1.062559
      py      :     1.061805
      dz2     :     0.007209  d :     0.028873
      dxz     :     0.008039
      dyz     :     0.001940
      dx2y2   :     0.003603
      dxy     :     0.008082

 41 H s       :     0.882113  s :     0.882113

 42 H s       :     0.874172  s :     0.874172

 43 H s       :     0.913200  s :     0.913200



                     *******************************
                     * LOEWDIN POPULATION ANALYSIS *
                     *******************************

----------------------
LOEWDIN ATOMIC CHARGES
----------------------
   0 Pd:   -0.250847
   1 O :   -0.088777
   2 O :   -0.094436
   3 C :    0.110799
   4 C :   -0.356912
   5 H :    0.122995
   6 H :    0.142060
   7 H :    0.126024
   8 O :   -0.134351
   9 C :    0.054757
  10 O :   -0.257170
  11 C :   -0.373706
  12 H :    0.128836
  13 H :    0.127103
  14 H :    0.105105
  15 O :   -0.140601
  16 Pd:   -0.266318
  17 O :   -0.295940
  18 C :    0.054251
  19 H :    0.169388
  20 H :    0.152385
  21 C :   -0.398988
  22 H :    0.101849
  23 O :   -0.081379
  24 C :    0.121578
  25 O :   -0.104316
  26 C :   -0.361108
  27 H :    0.118894
  28 H :    0.119083
  29 H :    0.153283
  30 O :   -0.133839
  31 C :    0.054887
  32 O :   -0.259995
  33 C :   -0.374381
  34 H :    0.120238
  35 H :    0.105360
  36 H :    0.130854
  37 O :   -0.138564
  38 C :    0.055720
  39 O :   -0.249559
  40 C :   -0.373683
  41 H :    0.125575
  42 H :    0.127996
  43 H :    0.105849

-------------------------------
LOEWDIN REDUCED ORBITAL CHARGES
-------------------------------
  0 Pds       :     2.456112  s :     2.456112
      pz      :     2.276532  p :     6.723390
      px      :     2.150094
      py      :     2.296763
      dz2     :     1.248120  d :     9.071345
      dxz     :     2.023936
      dyz     :     2.055058
      dx2y2   :     1.715988
      dxy     :     2.028243

  1 O s       :     3.458433  s :     3.458433
      pz      :     1.495295  p :     4.601606
      px      :     1.559577
      py      :     1.546733
      dz2     :     0.004465  d :     0.028738
      dxz     :     0.008416
      dyz     :     0.006073
      dx2y2   :     0.003915
      dxy     :     0.005869

  2 O s       :     3.456892  s :     3.456892
      pz      :     1.634103  p :     4.609040
      px      :     1.452470
      py      :     1.522466
      dz2     :     0.004830  d :     0.028504
      dxz     :     0.004762
      dyz     :     0.002888
      dx2y2   :     0.006059
      dxy     :     0.009965

  3 C s       :     2.811723  s :     2.811723
      pz      :     0.997560  p :     2.758727
      px      :     0.914897
      py      :     0.846270
      dz2     :     0.075345  d :     0.318750
      dxz     :     0.072383
      dyz     :     0.043610
      dx2y2   :     0.065901
      dxy     :     0.061512

  4 C s       :     2.965357  s :     2.965357
      pz      :     1.082400  p :     3.324408
      px      :     1.118291
      py      :     1.123717
      dz2     :     0.018578  d :     0.067147
      dxz     :     0.009140
      dyz     :     0.014127
      dx2y2   :     0.013040
      dxy     :     0.012261

  5 H s       :     0.877005  s :     0.877005

  6 H s       :     0.857940  s :     0.857940

  7 H s       :     0.873976  s :     0.873976

  8 O s       :     3.473680  s :     3.473680
      pz      :     1.628908  p :     4.634247
      px      :     1.563669
      py      :     1.441669
      dz2     :     0.003485  d :     0.026424
      dxz     :     0.003079
      dyz     :     0.002722
      dx2y2   :     0.005755
      dxy     :     0.011383

  9 C s       :     2.826013  s :     2.826013
      pz      :     0.806902  p :     2.795881
      px      :     1.010050
      py      :     0.978929
      dz2     :     0.018295  d :     0.323349
      dxz     :     0.064765
      dyz     :     0.016697
      dx2y2   :     0.104754
      dxy     :     0.118837

 10 O s       :     3.542031  s :     3.542031
      pz      :     1.462241  p :     4.685990
      px      :     1.472302
      py      :     1.751448
      dz2     :     0.004133  d :     0.029148
      dxz     :     0.006353
      dyz     :     0.000407
      dx2y2   :     0.011286
      dxy     :     0.006969

 11 C s       :     2.975117  s :     2.975117
      pz      :     1.125176  p :     3.331576
      px      :     1.113529
      py      :     1.092870
      dz2     :     0.014192  d :     0.067013
      dxz     :     0.017017
      dyz     :     0.005468
      dx2y2   :     0.010854
      dxy     :     0.019482

 12 H s       :     0.871164  s :     0.871164

 13 H s       :     0.872897  s :     0.872897

 14 H s       :     0.894895  s :     0.894895

 15 O s       :     3.479520  s :     3.479520
      pz      :     1.647797  p :     4.636320
      px      :     1.598660
      py      :     1.389862
      dz2     :     0.002802  d :     0.024761
      dxz     :     0.001833
      dyz     :     0.007899
      dx2y2   :     0.007495
      dxy     :     0.004733

 16 Pds       :     2.453710  s :     2.453710
      pz      :     2.256088  p :     6.728721
      px      :     2.256221
      py      :     2.216412
      dz2     :     1.776518  d :     9.083888
      dxz     :     1.584869
      dyz     :     1.979131
      dx2y2   :     1.969711
      dxy     :     1.773660

 17 O s       :     3.553269  s :     3.553269
      pz      :     1.635028  p :     4.714657
      px      :     1.473749
      py      :     1.605880
      dz2     :     0.003395  d :     0.028014
      dxz     :     0.005861
      dyz     :     0.005802
      dx2y2   :     0.004644
      dxy     :     0.008311

 18 C s       :     2.841821  s :     2.841821
      pz      :     0.966401  p :     2.789553
      px      :     0.892897
      py      :     0.930255
      dz2     :     0.058771  d :     0.314376
      dxz     :     0.042638
      dyz     :     0.068206
      dx2y2   :     0.076252
      dxy     :     0.068507

 19 H s       :     0.830612  s :     0.830612

 20 H s       :     0.847615  s :     0.847615

 21 C s       :     2.967121  s :     2.967121
      pz      :     1.108102  p :     3.365711
      px      :     1.147715
      py      :     1.109893
      dz2     :     0.013459  d :     0.066156
      dxz     :     0.009851
      dyz     :     0.019005
      dx2y2   :     0.016523
      dxy     :     0.007318

 22 H s       :     0.898151  s :     0.898151

 23 O s       :     3.455416  s :     3.455416
      pz      :     1.543442  p :     4.597316
      px      :     1.398293
      py      :     1.655581
      dz2     :     0.003891  d :     0.028647
      dxz     :     0.005825
      dyz     :     0.000744
      dx2y2   :     0.012460
      dxy     :     0.005728

 24 C s       :     2.815456  s :     2.815456
      pz      :     0.784581  p :     2.746702
      px      :     0.977334
      py      :     0.984786
      dz2     :     0.022176  d :     0.316264
      dxz     :     0.062453
      dyz     :     0.023358
      dx2y2   :     0.104013
      dxy     :     0.104264

 25 O s       :     3.453274  s :     3.453274
      pz      :     1.579857  p :     4.623037
      px      :     1.606982
      py      :     1.436197
      dz2     :     0.003479  d :     0.028006
      dxz     :     0.003174
      dyz     :     0.003850
      dx2y2   :     0.005484
      dxy     :     0.012020

 26 C s       :     2.963606  s :     2.963606
      pz      :     1.147509  p :     3.330558
      px      :     1.105462
      py      :     1.077587
      dz2     :     0.018357  d :     0.066944
      dxz     :     0.009763
      dyz     :     0.006280
      dx2y2   :     0.013448
      dxy     :     0.019096

 27 H s       :     0.881106  s :     0.881106

 28 H s       :     0.880917  s :     0.880917

 29 H s       :     0.846717  s :     0.846717

 30 O s       :     3.469320  s :     3.469320
      pz      :     1.437049  p :     4.638229
      px      :     1.609026
      py      :     1.592155
      dz2     :     0.004794  d :     0.026291
      dxz     :     0.003138
      dyz     :     0.011281
      dx2y2   :     0.004173
      dxy     :     0.002905

 31 C s       :     2.827326  s :     2.827326
      pz      :     0.973180  p :     2.792975
      px      :     0.807543
      py      :     1.012252
      dz2     :     0.064098  d :     0.324812
      dxz     :     0.018790
      dyz     :     0.124237
      dx2y2   :     0.055024
      dxy     :     0.062663

 32 O s       :     3.541482  s :     3.541482
      pz      :     1.764156  p :     4.689751
      px      :     1.469104
      py      :     1.456491
      dz2     :     0.004212  d :     0.028762
      dxz     :     0.000220
      dyz     :     0.006082
      dx2y2   :     0.011683
      dxy     :     0.006565

 33 C s       :     2.977429  s :     2.977429
      pz      :     1.093556  p :     3.329956
      px      :     1.122846
      py      :     1.113554
      dz2     :     0.017139  d :     0.066996
      dxz     :     0.004840
      dyz     :     0.020152
      dx2y2   :     0.005965
      dxy     :     0.018900

 34 H s       :     0.879762  s :     0.879762

 35 H s       :     0.894640  s :     0.894640

 36 H s       :     0.869146  s :     0.869146

 37 O s       :     3.475222  s :     3.475222
      pz      :     1.608391  p :     4.636913
      px      :     1.463604
      py      :     1.564919
      dz2     :     0.005007  d :     0.026429
      dxz     :     0.003612
      dyz     :     0.002612
      dx2y2   :     0.005043
      dxy     :     0.010154

 38 C s       :     2.826046  s :     2.826046
      pz      :     0.985917  p :     2.795380
      px      :     0.901870
      py      :     0.907594
      dz2     :     0.078309  d :     0.322854
      dxz     :     0.059070
      dyz     :     0.052595
      dx2y2   :     0.063684
      dxy     :     0.069197

 39 O s       :     3.541468  s :     3.541468
      pz      :     1.582593  p :     4.678721
      px      :     1.610399
      py      :     1.485730
      dz2     :     0.004926  d :     0.029369
      dxz     :     0.005087
      dyz     :     0.010549
      dx2y2   :     0.004258
      dxy     :     0.004549

 40 C s       :     2.975179  s :     2.975179
      pz      :     1.107248  p :     3.331407
      px      :     1.109519
      py      :     1.114640
      dz2     :     0.017570  d :     0.067097
      dxz     :     0.019009
      dyz     :     0.004325
      dx2y2   :     0.007657
      dxy     :     0.018536

 41 H s       :     0.874425  s :     0.874425

 42 H s       :     0.872004  s :     0.872004

 43 H s       :     0.894151  s :     0.894151



                      *****************************
                      * MAYER POPULATION ANALYSIS *
                      *****************************

  NA   - Mulliken gross atomic population
  ZA   - Total nuclear charge
  QA   - Mulliken gross atomic charge
  VA   - Mayer's total valence
  BVA  - Mayer's bonded valence
  FA   - Mayer's free valence

  ATOM       NA         ZA         QA         VA         BVA        FA
  0 Pd    17.6045    18.0000     0.3955     2.7066     2.7066     0.0000
  1 O      8.3621     8.0000    -0.3621     2.1961     2.1961     0.0000
  2 O      8.3622     8.0000    -0.3622     2.1792     2.1792     0.0000
  3 C      5.6566     6.0000     0.3434     4.1889     4.1889     0.0000
  4 C      6.3603     6.0000    -0.3603     3.8905     3.8905     0.0000
[...]
 93:   1433.40   0.087983  444.63  0.019155  ( 0.054001  0.093194  0.086910)
 94:   1449.98   0.007590   38.35  0.001633  (-0.018976 -0.003124  0.035547)
 95:   1451.07   0.008337   42.13  0.001793  (-0.007897 -0.037090  0.018841)
 96:   1453.70   0.005182   26.19  0.001112  (-0.002290  0.028336  0.017445)
 97:   1454.01   0.003446   17.42  0.000740  (-0.025989 -0.007909 -0.001287)
 98:   1454.72   0.003843   19.42  0.000824  (-0.008661 -0.016093 -0.022147)
 99:   1460.86   0.000101    0.51  0.000022  (-0.001742 -0.003223  0.002860)
100:   1461.43   0.007471   37.76  0.001595  (-0.001620 -0.028062  0.028378)
101:   1461.68   0.000643    3.25  0.000137  (-0.008418 -0.006863  0.004405)
102:   1461.95   0.002041   10.31  0.000436  (-0.009372  0.008599  0.016550)
103:   1465.47   0.004082   20.63  0.000869  (-0.026252  0.013365 -0.001199)
104:   1476.08   0.005839   29.51  0.001235  ( 0.027641  0.007496  0.020354)
105:   1480.44   0.009155   46.27  0.001930  (-0.027957 -0.033348 -0.006012)
106:   1500.01   0.068957  348.48  0.014346  (-0.010692  0.059091 -0.103633)
107:   1508.56   0.036201  182.95  0.007489  ( 0.032665  0.076056  0.025242)
108:   1684.35   0.007984   40.35  0.001479  (-0.036142 -0.004480 -0.012367)
109:   1739.37   0.271753  1373.33  0.048756  (-0.209731  0.040499  0.055933)
110:   1783.58   0.078790  398.17  0.013786  ( 0.048257  0.102396 -0.031176)
111:   1797.49   0.219657  1110.06  0.038135  ( 0.111238 -0.154858  0.042192)
112:   1809.38   0.036312  183.50  0.006263  (-0.065092 -0.038978  0.022502)
113:   1810.89   0.038232  193.21  0.006588  ( 0.056219 -0.050654 -0.029360)
114:   3034.94   0.006748   34.10  0.000694  (-0.019594 -0.016585 -0.005904)
115:   3037.47   0.004791   24.21  0.000492  ( 0.002858 -0.003259 -0.021759)
116:   3038.44   0.004595   23.22  0.000472  (-0.013340  0.002329 -0.016987)
117:   3039.31   0.005079   25.67  0.000521  (-0.001453 -0.022559 -0.003233)
118:   3050.38   0.002967   15.00  0.000304  (-0.003100  0.000670 -0.017132)
119:   3052.48   0.004930   24.91  0.000504  ( 0.007063  0.020389  0.006196)
120:   3132.38   0.002834   14.32  0.000282  ( 0.015600  0.002772 -0.005597)
121:   3132.97   0.006750   34.11  0.000672  ( 0.008813 -0.024084 -0.003829)
122:   3133.25   0.002020   10.21  0.000201  ( 0.010041  0.002708 -0.009645)
123:   3133.99   0.002293   11.59  0.000228  (-0.000326  0.002292 -0.014932)
124:   3144.30   0.001832    9.26  0.000182  ( 0.006754  0.009046  0.007374)
125:   3148.82   0.005779   29.20  0.000573  (-0.002129  0.019658 -0.013481)
126:   3150.43   0.006946   35.10  0.000688  ( 0.024257 -0.009426  0.003286)
127:   3150.72   0.005446   27.52  0.000539  ( 0.018060 -0.014592  0.000599)
128:   3150.91   0.002154   10.89  0.000213  (-0.002583  0.014098  0.002820)
129:   3156.40   0.001960    9.90  0.000194  (-0.013443 -0.003378 -0.001274)
130:   3167.26   0.002685   13.57  0.000265  (-0.011596  0.011136 -0.002468)
131:   3170.09   0.002830   14.30  0.000279  (-0.014056  0.009002 -0.000098)

* The epsilon (eps) is given for a Dirac delta lineshape.
** The dipole moment derivative (T) already includes vibrational overlap.

The first frequency considered to be a vibration is 6
The total number of vibrations considered is 126


--------------------------
THERMOCHEMISTRY AT 298.15K
--------------------------

Temperature         ...   298.15 K
Pressure            ...     1.00 atm
Total Mass          ...   567.06 AMU
Quasi RRHO          ...     True
Cut-Off Frequency   ...     1.00 cm^-1

Throughout the following assumptions are being made:
  (1) The electronic state is orbitally nondegenerate
  (2) There are no thermally accessible electronically excited states
  (3) Hindered rotations indicated by low frequency modes are not
      treated as such but are treated as vibrations and this may
      cause some error
  (4) All equations used are the standard statistical mechanics
      equations for an ideal gas
  (5) All vibrations are strictly harmonic

freq.      13.89  E(vib)   ...       0.57 
freq.      20.59  E(vib)   ...       0.56 
freq.      23.79  E(vib)   ...       0.56 
freq.      26.24  E(vib)   ...       0.56 
freq.      34.67  E(vib)   ...       0.54 
freq.      39.76  E(vib)   ...       0.54 
freq.      43.47  E(vib)   ...       0.53 
freq.      49.22  E(vib)   ...       0.52 
freq.      52.00  E(vib)   ...       0.52 
freq.      55.11  E(vib)   ...       0.52 
freq.      59.86  E(vib)   ...       0.51 
freq.      66.22  E(vib)   ...       0.50 
freq.      75.33  E(vib)   ...       0.49 
freq.      86.05  E(vib)   ...       0.48 
freq.      89.49  E(vib)   ...       0.47 
freq.      92.66  E(vib)   ...       0.47 
freq.     100.09  E(vib)   ...       0.46 
freq.     102.51  E(vib)   ...       0.46 
freq.     104.66  E(vib)   ...       0.46 
freq.     116.57  E(vib)   ...       0.44 
freq.     129.66  E(vib)   ...       0.43 
freq.     138.40  E(vib)   ...       0.42 
freq.     142.88  E(vib)   ...       0.41 
freq.     157.37  E(vib)   ...       0.40 
freq.     165.37  E(vib)   ...       0.39 
freq.     187.40  E(vib)   ...       0.36 
freq.     196.64  E(vib)   ...       0.36 
freq.     199.69  E(vib)   ...       0.35 
freq.     215.99  E(vib)   ...       0.34 
freq.     221.36  E(vib)   ...       0.33 
freq.     223.37  E(vib)   ...       0.33 
freq.     232.70  E(vib)   ...       0.32 
freq.     235.81  E(vib)   ...       0.32 
freq.     242.86  E(vib)   ...       0.31 
freq.     249.28  E(vib)   ...       0.31 
freq.     263.52  E(vib)   ...       0.29 
freq.     267.54  E(vib)   ...       0.29 
freq.     293.94  E(vib)   ...       0.27 
freq.     309.07  E(vib)   ...       0.26 
freq.     331.96  E(vib)   ...       0.24 
freq.     354.61  E(vib)   ...       0.22 
freq.     372.64  E(vib)   ...       0.21 
freq.     486.50  E(vib)   ...       0.15 
freq.     523.41  E(vib)   ...       0.13 
freq.     527.37  E(vib)   ...       0.13 
freq.     533.82  E(vib)   ...       0.13 
freq.     569.30  E(vib)   ...       0.11 
freq.     570.43  E(vib)   ...       0.11 
freq.     608.43  E(vib)   ...       0.10 
freq.     609.45  E(vib)   ...       0.10 
freq.     610.29  E(vib)   ...       0.10 
freq.     614.27  E(vib)   ...       0.10 
freq.     615.58  E(vib)   ...       0.10 
freq.     624.75  E(vib)   ...       0.09 
freq.     688.13  E(vib)   ...       0.07 
freq.     694.32  E(vib)   ...       0.07 
freq.     699.05  E(vib)   ...       0.07 
freq.     706.22  E(vib)   ...       0.07 
freq.     710.28  E(vib)   ...       0.07 
freq.     713.68  E(vib)   ...       0.07 
freq.     949.70  E(vib)   ...       0.03 
freq.     950.28  E(vib)   ...       0.03 
freq.     951.20  E(vib)   ...       0.03 
freq.     960.99  E(vib)   ...       0.03 
freq.     981.96  E(vib)   ...       0.02 
freq.     987.81  E(vib)   ...       0.02 
freq.    1020.98  E(vib)   ...       0.02 
freq.    1021.47  E(vib)   ...       0.02 
freq.    1025.18  E(vib)   ...       0.02 
freq.    1034.42  E(vib)   ...       0.02 
freq.    1038.87  E(vib)   ...       0.02 
freq.    1045.20  E(vib)   ...       0.02 
freq.    1050.94  E(vib)   ...       0.02 
freq.    1052.72  E(vib)   ...       0.02 
freq.    1053.40  E(vib)   ...       0.02 
freq.    1057.02  E(vib)   ...       0.02 
freq.    1061.89  E(vib)   ...       0.02 
freq.    1069.90  E(vib)   ...       0.02 
freq.    1336.84  E(vib)   ...       0.01 
freq.    1337.78  E(vib)   ...       0.01 
freq.    1339.76  E(vib)   ...       0.01 
freq.    1342.58  E(vib)   ...       0.01 
freq.    1356.31  E(vib)   ...       0.01 
freq.    1358.60  E(vib)   ...       0.01 
freq.    1409.64  E(vib)   ...       0.00 
freq.    1411.88  E(vib)   ...       0.00 
freq.    1424.27  E(vib)   ...       0.00 
freq.    1433.40  E(vib)   ...       0.00 
freq.    1449.98  E(vib)   ...       0.00 
freq.    1451.07  E(vib)   ...       0.00 
freq.    1453.70  E(vib)   ...       0.00 
freq.    1454.01  E(vib)   ...       0.00 
freq.    1454.72  E(vib)   ...       0.00 
freq.    1460.86  E(vib)   ...       0.00 
freq.    1461.43  E(vib)   ...       0.00 
freq.    1461.68  E(vib)   ...       0.00 
freq.    1461.95  E(vib)   ...       0.00 
freq.    1465.47  E(vib)   ...       0.00 
freq.    1476.08  E(vib)   ...       0.00 
freq.    1480.44  E(vib)   ...       0.00 
freq.    1500.01  E(vib)   ...       0.00 
freq.    1508.56  E(vib)   ...       0.00 
freq.    1684.35  E(vib)   ...       0.00 
freq.    1739.37  E(vib)   ...       0.00 
freq.    1783.58  E(vib)   ...       0.00 
freq.    1797.49  E(vib)   ...       0.00 
freq.    1809.38  E(vib)   ...       0.00 
freq.    1810.89  E(vib)   ...       0.00 
freq.    3034.94  E(vib)   ...       0.00 
freq.    3037.47  E(vib)   ...       0.00 
freq.    3038.44  E(vib)   ...       0.00 
freq.    3039.31  E(vib)   ...       0.00 
freq.    3050.38  E(vib)   ...       0.00 
freq.    3052.48  E(vib)   ...       0.00 
freq.    3132.38  E(vib)   ...       0.00 
freq.    3132.97  E(vib)   ...       0.00 
freq.    3133.25  E(vib)   ...       0.00 
freq.    3133.99  E(vib)   ...       0.00 
freq.    3144.30  E(vib)   ...       0.00 
freq.    3148.82  E(vib)   ...       0.00 
freq.    3150.43  E(vib)   ...       0.00 
freq.    3150.72  E(vib)   ...       0.00 
freq.    3150.91  E(vib)   ...       0.00 
freq.    3156.40  E(vib)   ...       0.00 
freq.    3167.26  E(vib)   ...       0.00 
freq.    3170.09  E(vib)   ...       0.00 

------------
INNER ENERGY
------------

The inner energy is: U= E(el) + E(ZPE) + E(vib) + E(rot) + E(trans)
    E(el)   - is the total energy from the electronic structure calculation
              = E(kin-el) + E(nuc-el) + E(el-el) + E(nuc-nuc)
    E(ZPE)  - the the zero temperature vibrational energy from the frequency calculation
    E(vib)  - the the finite temperature correction to E(ZPE) due to population
              of excited vibrational states
    E(rot)  - is the rotational thermal energy
    E(trans)- is the translational thermal energy

Summary of contributions to the inner energy U:
Electronic energy                ...  -1624.34052633 Eh
Zero point energy                ...      0.31152592 Eh     195.49 kcal/mol
Thermal vibrational correction   ...      0.03118523 Eh      19.57 kcal/mol
Thermal rotational correction    ...      0.00141627 Eh       0.89 kcal/mol
Thermal translational correction ...      0.00141627 Eh       0.89 kcal/mol
-----------------------------------------------------------------------
Total thermal energy                  -1623.99498263 Eh


Summary of corrections to the electronic energy:
(perhaps to be used in another calculation)
Total thermal correction                  0.03401777 Eh      21.35 kcal/mol
Non-thermal (ZPE) correction              0.31152592 Eh     195.49 kcal/mol
-----------------------------------------------------------------------
Total correction                          0.34554369 Eh     216.83 kcal/mol


--------
ENTHALPY
--------

The enthalpy is H = U + kB*T
                kB is Boltzmann's constant
Total thermal energy              ...  -1623.99498263 Eh 
Thermal Enthalpy correction       ...      0.00094421 Eh       0.59 kcal/mol
-----------------------------------------------------------------------
Total Enthalpy                    ...  -1623.99403842 Eh


Note: Only C1 symmetry has been detected, increase convergence thresholds 
      if your molecule has a higher symmetry. Symmetry factor of 1.0 is   
      used for the rotational entropy correction. 
 

Note: Rotational entropy computed according to Herzberg 
Infrared and Raman Spectra, Chapter V,1, Van Nostrand Reinhold, 1945 
Point Group:  C1, Symmetry Number:   1  
Rotational constants in cm-1:     0.005988     0.004640     0.004055 

Vibrational entropy computed according to the QRRHO of S. Grimme
Chem.Eur.J. 2012 18 9955 using a reference frequency of 100.0 cm-1


-------
ENTROPY
-------

The entropy contributions are T*S = T*(S(el)+S(vib)+S(rot)+S(trans))
     S(el)   - electronic entropy
     S(vib)  - vibrational entropy
     S(rot)  - rotational entropy
     S(trans)- translational entropy
The entropies will be listed as multiplied by the temperature to get
units of energy

Electronic entropy                ...      0.00000000 Eh      0.00 kcal/mol
Vibrational entropy               ...      0.05930772 Eh     37.22 kcal/mol
Rotational entropy                ...      0.01706367 Eh     10.71 kcal/mol
Translational entropy             ...      0.02132890 Eh     13.38 kcal/mol
-----------------------------------------------------------------------
Final entropy term                ...      0.09770029 Eh     61.31 kcal/mol

In case the symmetry of your molecule has not been determined correctly
or in case you have a reason to use a different symmetry number we print 
out the resulting rotational entropy values for sn=1,12:

 non-linear molecules -----------------------------------
|  sn= 1 | S(rot)=       0.01706367 Eh     10.71 kcal/mol|
|  sn= 2 | S(rot)=       0.01640921 Eh     10.30 kcal/mol|
|  sn= 3 | S(rot)=       0.01602638 Eh     10.06 kcal/mol|
|  sn= 4 | S(rot)=       0.01575476 Eh      9.89 kcal/mol|
|  sn= 5 | S(rot)=       0.01554407 Eh      9.75 kcal/mol|
|  sn= 6 | S(rot)=       0.01537192 Eh      9.65 kcal/mol|
|  sn= 7 | S(rot)=       0.01522638 Eh      9.55 kcal/mol|
|  sn= 8 | S(rot)=       0.01510030 Eh      9.48 kcal/mol|
|  sn= 9 | S(rot)=       0.01498909 Eh      9.41 kcal/mol|
|  sn=10 | S(rot)=       0.01488961 Eh      9.34 kcal/mol|
|  sn=11 | S(rot)=       0.01479962 Eh      9.29 kcal/mol|
|  sn=12 | S(rot)=       0.01471747 Eh      9.24 kcal/mol|
 linear molecules ---------------------------------------
|  Dinfh | S(rot)=       0.01052619 Eh      6.61 kcal/mol|
|  Cinfv | S(rot)=       0.01118064 Eh      7.02 kcal/mol|
 --------------------------------------------------------


-------------------
GIBBS FREE ENERGY
-------------------

The Gibbs free energy is G = H - T*S

Total enthalpy                    ...  -1623.99403842 Eh 
Total entropy correction          ...     -0.09770029 Eh    -61.31 kcal/mol
-----------------------------------------------------------------------
Final Gibbs free energy         ...  -1624.09173872 Eh

For completeness - the Gibbs free energy minus the electronic energy
G-E(el)                           ...      0.24878761 Eh    156.12 kcal/mol


Maximum memory used throughout the entire PROP-calculation: 284.8 MB

--------------------------------
SUGGESTED CITATIONS FOR THIS RUN
--------------------------------

Below you find a list of papers that are relevant to this ORCA run
We neither can nor want to force you to cite these papers, but we appreciate if you do
You receive ORCA, which is the product of decades of hard work by many enthusiastic individuals, for free
The only thing we kindly ask in return is that you cite our papers,
We deeply appreciate it, if you show your appreciation for ORCA by not just citing the generic ORCA reference.

Please note that relegating all ORCA citations to the supporting information does *not* help us.
SI sections are not indexed - citations you put there will not count into any citation statistics
But we need these citations in order to attract the funding resources that allow us to do what we are doing

Therefore, if you are a happy ORCA user, please consider citing a few of the papers listed below in the main body of your paper

In addition to the list printed below, the program has created the file CS_PdOAc_003_freq_01.bibtex that contains the list in bibtex format
You can import this file easily into all common literature databanks and citation aid programs


List of essential papers. We consider these as the minimum necessary citations

  1. Neese,F.
     Software update: the ORCA program system, version 5.0
     WIRES Comput. Molec. Sci., 2022 12(1)e1606
     doi.org/10.1002/wcms.1606

List of papers to cite with high priority. The work reported in these papers was absolutely
necessary for this run to complete.
Our perspective: the developers of density functionals and basis sets usually get cited in chemistry papers
Good! But without the algorithms to do something with them, the functionals or basis sets would not do anything.
Hence, in our opinion, the algorithm design and method developments papers are equally worthy of getting cited

  1. Neese,F.
     An improvement of the resolution of the identity approximation for the formation of the Coulomb matrix
     J. Comp. Chem., 2003 24(14)1740-1747
     doi.org/10.1002/jcc.10318
  2. Neese,F.; Wennmohs,F.; Hansen,A.; Becker,U.
     Efficient, approximate and parallel Hartree-Fock and hybrid DFT calculations. A 'chain-of-spheres' algorithm for the Hartree-Fock exchange
     Chem. Phys., 2009 356(1-3)98-109
     doi.org/10.1016/j.chemphys.2008.10.036
  3. Bykov,D.; Petrenko,T.; Izsak,R.; Kossmann,S.; Becker,U.; Valeev,E.; Neese,F.
     Efficient implementation of the analytic second derivatives of Hartree-Fock and hybrid DFT energies: a detailed analysis of different approximations
     Molec. Phys., 2015 113 1961-1977
     doi.org/10.1080/00268976.2015.1025114
  4. Helmich-Paris,B.; de Souza,B.; Neese,F.; Izsák,R.
     An improved chain of spheres for exchange algorithm
     J. Chem. Phys., 2021 155 104109
     doi.org/doi: 10.1063/5.0058766.
  5. Neese,F.
     The SHARK Integral Generation and Digestion System
     J. Comp. Chem., 2022  1-16
     doi.org/10.1002/jcc.26942
  6. Grimme,S.; Antony,J.; Ehrlich,S.; Krieg,H.
     A consistent and accurate ab initio parametrization of density functional dispersion correction (DFT-D) for the 94 elements H-Pu
     J. Chem. Phys., 2010 132 154104-XXXX
     doi.org/10.1063/1.3382344
  7. Grimme,S.; Ehrlich,S.; Goerigk,L.
     Effect of the damping function in dispersion corrected density functional theory
     J. Comput. Chem., 2011 32(7)1456-1465
     doi.org/10.1002/jcc.21759

List of suggested additional citations. These are papers that are important in the 'surrounding' of 
of this run, or papers that preceded the highly important papers. If you like your results we are grateful for a citation.

  1. Izsak,R.; Neese,F.
     An overlap fitted chain of spheres exchange method
     J. Chem. Phys., 2011 135 144105
     doi.org/10.1063/1.3646921
  2. Izsak,R.; Hansen,A.; Neese,F.
     The resolution of identity and chain of spheres approximations for the LPNO-CCSD singles Fock term
     Molec. Phys., 2012 110 2413-2417
     doi.org/10.1080/00268976.2012.687466
  3. Neese,F.
     The ORCA program system
     WIRES Comput. Molec. Sci., 2012 2(1)73-78
     doi.org/10.1002/wcms.81
  4. Izsak,R.; Neese,F.; Klopper,W.
     Robust fitting techniques in the chain of spheres approximation to the Fock exchange: The role of the complementary space
     J. Chem. Phys., 2013 139 
     doi.org/10.1063/1.4819264
  5. Neese,F.
     Software update: the ORCA program system, version 4.0
     WIRES Comput. Molec. Sci., 2018 8(1)1-6
     doi.org/10.1002/wcms.1327
  6. Neese,F.; Wennmohs,F.; Becker,U.; Riplinger,C.
     The ORCA quantum chemistry program package
     J. Chem. Phys., 2020 152 Art. No. L224108
     doi.org/10.1063/5.0004608

List of optional additional citations

  1. Neese,F.
     Approximate second-order SCF convergence for spin unrestricted wavefunctions
     Chem. Phys. Lett., 2000 325(1-3)93-98
     doi.org/10.1016/s0009-2614(00)00662-x

Timings for individual modules:

Sum of individual times          ...     1197.862 sec (=  19.964 min)
Startup calculation              ...        8.958 sec (=   0.149 min)   0.7 %
SCF iterations                   ...      157.568 sec (=   2.626 min)  13.2 %
Property integrals               ...      265.242 sec (=   4.421 min)  22.1 %
SCF Response                     ...      436.964 sec (=   7.283 min)  36.5 %
Property calculations            ...      329.129 sec (=   5.485 min)  27.5 %
                             ****ORCA TERMINATED NORMALLY****
TOTAL RUN TIME: 0 days 0 hours 20 minutes 2 seconds 520 msec
