
                                 *****************
                                 * O   R   C   A *
                                 *****************

                                            #,                                       
                                            ###                                      
                                            ####                                     
                                            #####                                    
                                            ######                                   
                                           ########,                                 
                                     ,,################,,,,,                         
                               ,,#################################,,                 
                          ,,##########################################,,             
                       ,#########################################, ''#####,          
                    ,#############################################,,   '####,        
                  ,##################################################,,,,####,       
                ,###########''''           ''''###############################       
              ,#####''   ,,,,##########,,,,          '''####'''          '####       
            ,##' ,,,,###########################,,,                        '##       
           ' ,,###''''                  '''############,,,                           
         ,,##''                                '''############,,,,        ,,,,,,###''
      ,#''                                            '''#######################'''  
     '                                                          ''''####''''         
             ,#######,   #######,   ,#######,      ##                                
            ,#'     '#,  ##    ##  ,#'     '#,    #''#        ,####,   ,####,        
            ##       ##  ##   ,#'  ##            #'  '#       #'       #'  '#        
            ##       ##  #######   ##           ,######,      #####,   #    #        
            '#,     ,#'  ##    ##  '#,     ,#' ,#      #,     #,   #   #,  ,#        
             '#######'   ##     ##  '#######'  #'      '#     '####' # '####'        



                #########################################################
                #                        -***-                          #
                #          Department of theory and spectroscopy        #
                #                                                       #
                #                      Frank Neese                      #
                #                                                       #
                #     Directorship, Architecture, Infrastructure        #
                #                    SHARK, DRIVERS                     #
                #        Core code/Algorithms in most modules           #
                #                                                       #
                #        Max Planck Institute fuer Kohlenforschung      #
                #                Kaiser Wilhelm Platz 1                 #
                #                 D-45470 Muelheim/Ruhr                 #
                #                      Germany                          #
                #                                                       #
                #                  All rights reserved                  #
                #                        -***-                          #
                #########################################################


                         Program Version 6.0.0  -   RELEASE  -


 With contributions from (in alphabetic order):
   Daniel Aravena         : Magnetic Suceptibility
   Michael Atanasov       : Ab Initio Ligand Field Theory (pilot matlab implementation)
   Alexander A. Auer      : GIAO ZORA, VPT2 properties, NMR spectrum
   Ute Becker             : All parallelization in ORCA, NUMFREQ, NUMCALC
   Giovanni Bistoni       : ED, misc. LED, open-shell LED, HFLD
   Martin Brehm           : Molecular dynamics
   Dmytro Bykov           : pre 5.0 version of the SCF Hessian
   Marcos Casanova-Páez   : Triplet and SCS-CIS(D). UHF-(DLPNO)-IP/EA/STEOM-CCSD. UHF-CVS-IP/STEOM-CCSD
   Vijay G. Chilkuri      : MRCI spin determinant printing, contributions to CSF-ICE
   Pauline Colinet        : FMM embedding
   Dipayan Datta          : RHF DLPNO-CCSD density
   Achintya Kumar Dutta   : EOM-CC, STEOM-CC
   Nicolas Foglia         : Exact transition moments, OPA infrastructure, MCD improvements
   Dmitry Ganyushin       : Spin-Orbit,Spin-Spin,Magnetic field MRCI
   Miquel Garcia          : C-PCM and meta-GGA Hessian, CCSD/C-PCM, Gaussian charge scheme
   Tiago L. C. Gouveia    : GS-ROHF, GS-ROCIS
   Yang Guo               : DLPNO-NEVPT2, F12-NEVPT2, CIM, IAO-localization
   Andreas Hansen         : Spin unrestricted coupled pair/coupled cluster methods
   Ingolf Harden          : AUTO-CI MPn and infrastructure 
   Benjamin Helmich-Paris : MC-RPA, TRAH-(SCF,CASSCF), AVAS, COSX integrals, SCF dyn. polar.
   Lee Huntington         : MR-EOM, pCC
   Robert Izsak           : Overlap fitted RIJCOSX, COSX-SCS-MP3, EOM
   Riya Kayal             : Wick's Theorem for AUTO-CI, AUTO-CI UHF-CCSDT
   Emily Kempfer          : AUTO-CI, RHF CISDT and CCSDT
   Christian Kollmar      : KDIIS, OOCD, Brueckner-CCSD(T), CCSD density, CASPT2, CASPT2-K, improved NEVPT2
   Axel Koslowski         : Symmetry handling
   Simone Kossmann        : Meta GGA functionals, TD-DFT gradient, OOMP2, (MP2 Hessian; deprecated post 5.0)
   Lucas Lang             : DCDCAS
   Marvin Lechner         : AUTO-CI (C++ implementation), FIC-MRCC
   Spencer Leger          : CASSCF response
   Dagmar Lenk            : GEPOL surface, SMD, ORCA-2-JSON
   Dimitrios Liakos       : Extrapolation schemes; Compound Job, initial MDCI parallelization
   Dimitrios Manganas     : Further ROCIS development; embedding schemes. LFT, Crystal Embedding
   Dimitrios Pantazis     : SARC Basis sets
   Anastasios Papadopoulos: AUTO-CI, single reference methods and gradients
   Taras Petrenko         : pre 6.0 DFT Hessian and TD-DFT gradient, (ASA, deprecated), ECA, 1-Electron XAS/XES, NRVS
   Peter Pinski           : DLPNO-MP2, DLPNO-MP2 Gradient
   Christoph Reimann      : Effective Core Potentials
   Marius Retegan         : Local ZFS, SOC
   Christoph Riplinger    : Optimizer, TS searches, QM/MM, DLPNO-CCSD(T), (RO)-DLPNO pert. Triples
   Michael Roemelt        : Original ROCIS implementation
   Masaaki Saitow         : Open-shell DLPNO-CCSD energy and density
   Barbara Sandhoefer     : DKH picture change effects
   Kantharuban Sivalingam : CASSCF convergence/infrastructure, NEVPT2 and variants, FIC-MRCI
   Bernardo de Souza      : ESD, SOC TD-DFT
   Georgi Stoychev        : AutoAux, RI-MP2 NMR, DLPNO-MP2 response, X2C
   Van Anh Tran           : RI-MP2 g-tensors
   Willem Van den Heuvel  : Paramagnetic NMR
   Zikuan Wang            : NOTCH, Electric field optimization 
   Frank Wennmohs         : Technical directorship and infrastructure
   Hang Xu                : AUTO-CI-Response properties 


 We gratefully acknowledge several colleagues who have allowed us to
 interface, adapt or use parts of their codes:
   Stefan Grimme, W. Hujo, H. Kruse, P. Pracht,  : VdW corrections, initial TS optimization,
                  C. Bannwarth, S. Ehlert,         DFT functionals, gCP, sTDA/sTD-DF
                  L. Wittmann, M. Mueller
   Ed Valeev, F. Pavosevic, A. Kumar             : LibInt (2-el integral package), F12 methods
   Garnet Chan, S. Sharma, J. Yang, R. Olivares  : DMRG
   Ulf Ekstrom                                   : XCFun DFT Library
   Mihaly Kallay                                 : mrcc  (arbitrary order and MRCC methods)
   Frank Weinhold                                : gennbo (NPA and NBO analysis)
   Simon Mueller                                 : openCOSMO-RS
   Christopher J. Cramer and Donald G. Truhlar   : smd solvation model
   Lars Goerigk                                  : TD-DFT with DH, B97 family of functionals
   V. Asgeirsson, H. Jonsson                     : NEB implementation
   FAccTs GmbH                                   : IRC, NEB, NEB-TS, DLPNO-Multilevel, CI-OPT
                                                   MM, QMMM, 2- and 3-layer-ONIOM, Crystal-QMMM,
                                                   LR-CPCM, SF, NACMEs, symmetry and pop. for TD-DFT,
                                                   nearIR, NL-DFT gradient (VV10), updates on ESD,
                                                   ML-optimized integration grids, MBIS, APM,
                                                   GOAT, DOCKER, SOLVATOR, interface openCOSMO-RS
   S Lehtola, MJT Oliveira, MAL Marques          : LibXC Library
   Liviu Ungur et al                             : ANISO software


 Your calculation uses the libint2 library for the computation of 2-el integrals
 For citations please refer to: http://libint.valeyev.net

 Your ORCA version has been built with support for libXC version: 6.2.2
 For citations please refer to: https://libxc.gitlab.io

 This ORCA versions uses:
   CBLAS   interface :  Fast vector & matrix operations
   LAPACKE interface :  Fast linear algebra routines
   SCALAPACK package :  Parallel linear algebra routines
   Shared memory     :  Shared parallel matrices
   BLAS/LAPACK       :  OpenBLAS 0.3.27  USE64BITINT DYNAMIC_ARCH NO_AFFINITY Sandybridge SINGLE_THREADED
        Core in use  :  Sandybridge
   Copyright (c) 2011-2014, The OpenBLAS Project


NOTE: MaxCore=3500 MB was set to SCF,MP2,MDCI,CIPSI,MRCI and CIS
      => If you want to overwrite this, your respective input block should be placed after the MaxCore statement
Your calculation utilizes the atom-pairwise dispersion correction
with the Becke-Johnson damping scheme (D3BJ)


Warning: RI is on but no J-basis has been assigned. Assigning Def2/J (nothing to worry about!)
================================================================================

cite the ECPs for Pd [Def2-ECP] as follows:
Ce-Yb(ecp-28): M. Dolg, H. Stoll, H.Preuss, J. Chem. Phys., 1989, 90, 1730-1734.
Y-Cd(ecp-28), Hf-Hg(ecp-46): D. Andrae,U. Haeussermann, M. Dolg, H. Stoll, H. Preuss, Theor. Chim. Acta, 1990, 77, 123-141.
In-Sb(ecp-28), Tl-Bi(ecp-46): B. Metz, H. Stoll, M. Dolg, J. Chem. Phys., 2000, 113, 2563-2569.
Te-Xe(ecp-28), Po-Rn(ecp-46): K. A. Peterson, D. Figgen, E. Goll, H. Stoll, M. Dolg, J. Chem. Phys., 2003, 119, 11113-11123.
Rb(ecp-28), Cs(ecp-46): T. Leininger, A. Nicklass, W. Kuechle, H. Stoll, M. Dolg, A. Bergner, Chem. Phys. Lett., 1996, 255, 274-280.
Sr(ecp-28), Ba(ecp-46): M. Kaupp, P. V. Schleyer, H. Stoll and H. Preuss, J. Chem. Phys., 1991, 94, 1360-1366.
La(ecp-46): M. Dolg, H. Stoll, A. Savin, H. Preuss, Theor. Chim. Acta, 1989, 75, 173-194.
Lu(ecp-28): X. Cao, M. Dolg, J. Chem. Phys., 2001, 115, 7348-7355.

ECP parameters for Pd [Def2-ECP] have been obtained from:
TURBOMOLE (7.0.2)

----- Orbital basis set information -----
Your calculation utilizes the basis: def2-TZVP
   F. Weigend and R. Ahlrichs, Phys. Chem. Chem. Phys. 7, 3297 (2005).

----- AuxJ basis set information -----
Your calculation utilizes the auxiliary basis: def2/J
   F. Weigend, Phys. Chem. Chem. Phys. 8, 1057 (2006).

================================================================================
                                        WARNINGS
                       Please study these warnings very carefully!
================================================================================


================================================================================
                                       INPUT FILE
================================================================================
NAME = CS_PdOAc_001_sp_01.inp
|  1> !TPSSh def2-TZVP d3 TightSCF SlowConv RIJCOSX defgrid2
|  2> 
|  3> %pal
|  4> nprocs 16
|  5> end
|  6> 
|  7> %scf
|  8> MaxIter 1500
|  9> end
| 10> 
| 11> %maxcore 3500
| 12> 
| 13>  
| 14> 
| 15> * xyz 0 1
| 16>   Pd         -0.70729732359429     -1.69471520698101     -0.00411741820118
| 17>   Pd         -1.11683962042653      1.46234841125249     -0.01199162650670
| 18>   Pd          1.82153224613321      0.23638840943721      0.01149599704147
| 19>   O           0.65717020631612     -2.54430691430186      1.22342692467684
| 20>   O           0.30208044667745     -2.27040351328351     -1.65079825387713
| 21>   O          -1.82659447994299     -1.38351962474004      1.64325741771439
| 22>   O          -2.27157849267903     -1.31796320025989     -1.22974419824762
| 23>   O          -2.10146057413708      0.88012719115423     -1.67106773781384
| 24>   O           0.00410206993513      2.62967709997367     -1.22530713419033
| 25>   O          -2.54701322417182      0.69898345219958      1.19649257183493
| 26>   O          -0.30635482903907      2.27184095767005      1.64687421948762
| 27>   O           1.86249152561263      1.85151702320007      1.22806540163286
| 28>   O           2.09794236418462     -0.87676297014425      1.66881788581427
| 29>   O           2.28691360022264     -1.31562606175175     -1.19938062891759
| 30>   O           1.83064850766278      1.38655863591844     -1.64342664875516
| 31>   C          -2.54947741577062     -0.27692201146875     -1.87616601959935
| 32>   C          -2.55728302600413     -0.37939237868914      1.84138099270396
| 33>   C           1.59116634792032     -2.00967203446952      1.87198392078046
| 34>   C           1.53002353585967     -2.08221996642852     -1.84627640166011
| 35>   C           1.05385476876182      2.35201448781485     -1.85757755945378
| 36>   C           0.92610165556911      2.40001095882297      1.86150099178292
| 37>   C          -3.50190662573245     -0.44465889520679     -3.02919546851225
| 38>   H          -3.89516668402246      0.52750343055755     -3.35788951575189
| 39>   H          -2.95896166644210     -0.92174980515021     -3.86340379777296
| 40>   H          -4.32164188118390     -1.11972030495782     -2.73856445661204
| 41>   C           1.39888310750764      3.26247798673059     -3.00521028946863
| 42>   H           1.21647777381569      4.30916199917301     -2.71670989400076
| 43>   H           2.44261533013324      3.12050655338611     -3.31856742013713
| 44>   H           0.72743740128005      3.02907808519091     -3.84958061083043
| 45>   C           2.16241922653299     -2.83318711430041     -2.98680361093246
| 46>   H           2.31465018512874     -2.13135172379473     -3.82498238147898
| 47>   H           3.15303791190011     -3.20490916968796     -2.68231008942760
| 48>   H           1.51957679259546     -3.66159894229901     -3.31581878271186
| 49>   C           2.13909525985761     -2.80285286274312      3.02759813974084
| 50>   H           2.19324921785900     -3.86832977489665      2.75663534263119
| 51>   H           3.12608947347902     -2.42490950306132      3.32925297511617
| 52>   H           1.43892999026856     -2.70945503981504      3.87594678327563
| 53>   C          -3.53140387701817     -0.46122903773955      2.98559055861895
| 54>   H          -3.69708206400159     -1.50555330804548      3.28538623648237
| 55>   H          -3.11310178068615      0.10061419630771      3.83878425744490
| 56>   H          -4.47985980501089      0.02077819409732      2.70312126528622
| 57>   C           1.32826969647438      3.28245440536012      3.01231179070604
| 58>   H           1.60631546728150      2.63794840594356      3.86419305408477
| 59>   H           2.21660700098280      3.87175359322641      2.73786782321844
| 60>   H           0.49951125991094      3.94017188679948      3.30968039478457
| 61> *
| 62> 
| 63>                          ****END OF INPUT****
================================================================================

                       ****************************
                       * Single Point Calculation *
                       ****************************

---------------------------------
CARTESIAN COORDINATES (ANGSTROEM)
---------------------------------
  Pd    -0.707297   -1.694715   -0.004117
  Pd    -1.116840    1.462348   -0.011992
  Pd     1.821532    0.236388    0.011496
  O      0.657170   -2.544307    1.223427
  O      0.302080   -2.270404   -1.650798
  O     -1.826594   -1.383520    1.643257
  O     -2.271578   -1.317963   -1.229744
  O     -2.101461    0.880127   -1.671068
  O      0.004102    2.629677   -1.225307
  O     -2.547013    0.698983    1.196493
  O     -0.306355    2.271841    1.646874
  O      1.862492    1.851517    1.228065
  O      2.097942   -0.876763    1.668818
  O      2.286914   -1.315626   -1.199381
  O      1.830649    1.386559   -1.643427
  C     -2.549477   -0.276922   -1.876166
  C     -2.557283   -0.379392    1.841381
  C      1.591166   -2.009672    1.871984
  C      1.530024   -2.082220   -1.846276
  C      1.053855    2.352014   -1.857578
  C      0.926102    2.400011    1.861501
  C     -3.501907   -0.444659   -3.029195
  H     -3.895167    0.527503   -3.357890
  H     -2.958962   -0.921750   -3.863404
  H     -4.321642   -1.119720   -2.738564
  C      1.398883    3.262478   -3.005210
  H      1.216478    4.309162   -2.716710
  H      2.442615    3.120507   -3.318567
  H      0.727437    3.029078   -3.849581
  C      2.162419   -2.833187   -2.986804
  H      2.314650   -2.131352   -3.824982
  H      3.153038   -3.204909   -2.682310
  H      1.519577   -3.661599   -3.315819
  C      2.139095   -2.802853    3.027598
  H      2.193249   -3.868330    2.756635
  H      3.126089   -2.424910    3.329253
  H      1.438930   -2.709455    3.875947
  C     -3.531404   -0.461229    2.985591
  H     -3.697082   -1.505553    3.285386
  H     -3.113102    0.100614    3.838784
  H     -4.479860    0.020778    2.703121
  C      1.328270    3.282454    3.012312
  H      1.606315    2.637948    3.864193
  H      2.216607    3.871754    2.737868
  H      0.499511    3.940172    3.309680

----------------------------
CARTESIAN COORDINATES (A.U.)
----------------------------
  NO LB      ZA    FRAG     MASS         X           Y           Z
   0 Pd   18.0000*   0   106.400   -1.336598   -3.202548   -0.007781
   1 Pd   18.0000*   0   106.400   -2.110521    2.763438   -0.022661
   2 Pd   18.0000*   0   106.400    3.442197    0.446709    0.021724
   3 O     8.0000    0    15.999    1.241872   -4.808043    2.311942
   4 O     8.0000    0    15.999    0.570849   -4.290441   -3.119557
   5 O     8.0000    0    15.999   -3.451763   -2.614473    3.105306
   6 O     8.0000    0    15.999   -4.292661   -2.490590   -2.323880
   7 O     8.0000    0    15.999   -3.971185    1.663199   -3.157860
   8 O     8.0000    0    15.999    0.007752    4.969370   -2.315495
   9 O     8.0000    0    15.999   -4.813157    1.320887    2.261043
  10 O     8.0000    0    15.999   -0.578927    4.293157    3.112141
  11 O     8.0000    0    15.999    3.519599    3.498860    2.320707
  12 O     8.0000    0    15.999    3.964537   -1.656842    3.153609
  13 O     8.0000    0    15.999    4.321640   -2.486173   -2.266501
  14 O     8.0000    0    15.999    3.459424    2.620216   -3.105626
  15 C     6.0000    0    12.011   -4.817814   -0.523307   -3.545440
  16 C     6.0000    0    12.011   -4.832565   -0.716948    3.479706
  17 C     6.0000    0    12.011    3.006869   -3.797730    3.537537
  18 C     6.0000    0    12.011    2.891325   -3.934825   -3.488957
  19 C     6.0000    0    12.011    1.991497    4.444663   -3.510313
  20 C     6.0000    0    12.011    1.750079    4.535363    3.517727
  21 C     6.0000    0    12.011   -6.617644   -0.840284   -5.724350
  22 H     1.0000    0     1.008   -7.360798    0.996837   -6.345492
  23 H     1.0000    0     1.008   -5.591627   -1.741855   -7.300775
  24 H     1.0000    0     1.008   -8.166720   -2.115965   -5.175137
  25 C     6.0000    0    12.011    2.643506    6.165190   -5.679024
  26 H     1.0000    0     1.008    2.298810    8.143136   -5.133838
  27 H     1.0000    0     1.008    4.615874    5.896903   -6.271184
  28 H     1.0000    0     1.008    1.374657    5.724128   -7.274653
  29 C     6.0000    0    12.011    4.086380   -5.353948   -5.644241
  30 H     1.0000    0     1.008    4.374055   -4.027671   -7.228169
  31 H     1.0000    0     1.008    5.958378   -6.056401   -5.068831
  32 H     1.0000    0     1.008    2.871584   -6.919419   -6.265989
  33 C     6.0000    0    12.011    4.042304   -5.296624    5.721331
  34 H     1.0000    0     1.008    4.144640   -7.310084    5.209286
  35 H     1.0000    0     1.008    5.907453   -4.582415    6.291376
  36 H     1.0000    0     1.008    2.719184   -5.120128    7.324478
  37 C     6.0000    0    12.011   -6.673386   -0.871597    5.641949
  38 H     1.0000    0     1.008   -6.986473   -2.845083    6.208480
  39 H     1.0000    0     1.008   -5.882910    0.190133    7.254251
  40 H     1.0000    0     1.008   -8.465708    0.039265    5.108159
  41 C     6.0000    0    12.011    2.510066    6.202940    5.692444
  42 H     1.0000    0     1.008    3.035496    4.985000    7.302267
  43 H     1.0000    0     1.008    4.188780    7.316554    5.173820
  44 H     1.0000    0     1.008    0.943939    7.445846    6.254390
* core charge reduced due to ECP

--------------------------------
INTERNAL COORDINATES (ANGSTROEM)
--------------------------------
 Pd     0   0   0     0.000000000000     0.00000000     0.00000000
 Pd     1   0   0     3.183525967481     0.00000000     0.00000000
 Pd     1   2   0     3.181883710761    60.02594775     0.00000000
 O      1   2   3     2.022484319608   120.32289177    44.15713502
 O      1   2   3     2.015395316982   110.22327694   298.94356873
 O      1   2   3     2.015815632597    77.14390250   122.57955944
 O      1   2   3     2.022641504194    73.39874504   218.76012831
 O      2   1   3     2.015190689421    77.19563382   122.75098424
 O      2   1   3     2.022696482888   120.16615592    44.22484380
 O      2   1   3     2.022017966093    73.44854097   218.92458113
 O      2   1   3     2.015936426275   110.14844440   299.07287859
 O      3   1   2     2.022463650541   120.24635155    44.23096099
 O      3   1   2     2.015496065546    77.16396197   122.70799941
 O      3   1   2     2.022758247248    73.39633666   218.87719105
 O      3   1   2     2.015376793475   110.23828081   299.04325353
 C      7   1   2     1.256525264105   129.57616247    25.02293112
 C     10   2   1     1.256535306645   129.53250425    25.01262590
 C      4   1   2     1.256506834227   129.49634671   345.94944640
 C     14   3   1     1.256591789330   129.61875040    24.95483582
 C      9   2   1     1.256520252741   129.59066166   345.70315684
 C     12   3   1     1.256547744021   129.54890233   345.74554477
 C     16   7   1     1.504903309922   116.21811471   160.42300880
 H     22  16   7     1.098996286514   110.91764658   164.66719571
 H     22  16   7     1.103770130859   108.41677983   284.81638812
 H     22  16   7     1.100972379782   109.71277374    41.94587775
 C     20   9   2     1.505008046622   116.20294296   160.60514448
 H     26  20   9     1.100932153153   109.71480229    41.83450746
 H     26  20   9     1.098965664511   110.91663937   164.55551643
 H     26  20   9     1.103755448479   108.41865981   284.70353357
 C     19  14   3     1.504884806839   116.19784069   160.55263924
 H     30  19  14     1.103762126328   108.43186675   284.95240124
 H     30  19  14     1.101008161141   109.69269005    42.07004496
 H     30  19  14     1.098982954781   110.93120883   164.76228722
 C     18   4   1     1.504927287925   116.27826755   160.32309813
 H     34  18   4     1.100724551792   109.81974310    39.33142823
 H     34  18   4     1.099087985811   110.88369555   162.20639352
 H     34  18   4     1.103924806793   108.33624133   282.07695182
 C     17  10   2     1.504933288181   116.24234801   160.30765154
 H     38  17  10     1.099063188201   110.89380894   162.46236011
 H     38  17  10     1.103894900413   108.34157160   282.36905979
 H     38  17  10     1.100767241774   109.80418608    39.59561842
 C     21  12   3     1.504928923365   116.25063344   160.53713110
 H     42  21  12     1.103811179887   108.36701425   283.09898522
 H     42  21  12     1.100788894698   109.81083318    40.32567845
 H     42  21  12     1.099027260016   110.87344053   163.13994010

---------------------------
INTERNAL COORDINATES (A.U.)
---------------------------
 Pd     0   0   0     0.000000000000     0.00000000     0.00000000
 Pd     1   0   0     6.015992218765     0.00000000     0.00000000
 Pd     1   2   0     6.012888803324    60.02594775     0.00000000
 O      1   2   3     3.821941474209   120.32289177    44.15713502
 O      1   2   3     3.808545200684   110.22327694   298.94356873
 O      1   2   3     3.809339482086    77.14390250   122.57955944
 O      1   2   3     3.822238510029    73.39874504   218.76012831
 O      2   1   3     3.808158510633    77.19563382   122.75098424
 O      2   1   3     3.822342404704   120.16615592    44.22484380
 O      2   1   3     3.821060193783    73.44854097   218.92458113
 O      2   1   3     3.809567749056   110.14844440   299.07287859
 O      3   1   2     3.821902415333   120.24635155    44.23096099
 O      3   1   2     3.808735587877    77.16396197   122.70799941
 O      3   1   2     3.822459122428    73.39633666   218.87719105
 O      3   1   2     3.808510196329   110.23828081   299.04325353
 C      7   1   2     2.374488629512   129.57616247    25.02293112
 C     10   2   1     2.374507607162   129.53250425    25.01262590
 C      4   1   2     2.374453802090   129.49634671   345.94944640
 C     14   3   1     2.374614343967   129.61875040    24.95483582
 C      9   2   1     2.374479159405   129.59066166   345.70315684
 C     12   3   1     2.374531110396   129.54890233   345.74554477
 C     16   7   1     2.843855113785   116.21811471   160.42300880
 H     22  16   7     2.076802003709   110.91764658   164.66719571
 H     22  16   7     2.085823262127   108.41677983   284.81638812
 H     22  16   7     2.080536278800   109.71277374    41.94587775
 C     20   9   2     2.844053037463   116.20294296   160.60514448
 H     26  20   9     2.080460261488   109.71480229    41.83450746
 H     26  20   9     2.076744136508   110.91663937   164.55551643
 H     26  20   9     2.085795516449   108.41865981   284.70353357
 C     19  14   3     2.843820148025   116.19784069   160.55263924
 H     30  19  14     2.085808135755   108.43186675   284.95240124
 H     30  19  14     2.080603895768   109.69269005    42.07004496
 H     30  19  14     2.076776810384   110.93120883   164.76228722
 C     18   4   1     2.843900425643   116.27826755   160.32309813
 H     34  18   4     2.080067951769   109.81974310    39.33142823
 H     34  18   4     2.076975290267   110.88369555   162.20639352
 H     34  18   4     2.086115557281   108.33624133   282.07695182
 C     17  10   2     2.843911764484   116.24234801   160.30765154
 H     38  17  10     2.076928429574   110.89380894   162.46236011
 H     38  17  10     2.086059042412   108.34157160   282.36905979
 H     38  17  10     2.080148624145   109.80418608    39.59561842
 C     21  12   3     2.843903516176   116.25063344   160.53713110
 H     42  21  12     2.085900833547   108.36701425   283.09898522
 H     42  21  12     2.080189542242   109.81083318    40.32567845
 H     42  21  12     2.076860535144   110.87344053   163.13994010

---------------------
BASIS SET INFORMATION
---------------------
There are 4 groups of distinct atoms

 Group   1 Type Pd  : 7s7p6d1f contracted to 6s4p3d1f pattern {211111/4111/411/1}
 Group   2 Type O   : 11s6p2d1f contracted to 5s3p2d1f pattern {62111/411/11/1}
 Group   3 Type C   : 11s6p2d1f contracted to 5s3p2d1f pattern {62111/411/11/1}
 Group   4 Type H   : 5s1p contracted to 3s1p pattern {311/1}

Atom   0Pd   basis set group =>   1
Atom   1Pd   basis set group =>   1
Atom   2Pd   basis set group =>   1
Atom   3O    basis set group =>   2
Atom   4O    basis set group =>   2
Atom   5O    basis set group =>   2
Atom   6O    basis set group =>   2
Atom   7O    basis set group =>   2
Atom   8O    basis set group =>   2
Atom   9O    basis set group =>   2
Atom  10O    basis set group =>   2
Atom  11O    basis set group =>   2
Atom  12O    basis set group =>   2
Atom  13O    basis set group =>   2
Atom  14O    basis set group =>   2
Atom  15C    basis set group =>   3
Atom  16C    basis set group =>   3
Atom  17C    basis set group =>   3
Atom  18C    basis set group =>   3
Atom  19C    basis set group =>   3
Atom  20C    basis set group =>   3
Atom  21C    basis set group =>   3
Atom  22H    basis set group =>   4
Atom  23H    basis set group =>   4
Atom  24H    basis set group =>   4
Atom  25C    basis set group =>   3
Atom  26H    basis set group =>   4
Atom  27H    basis set group =>   4
Atom  28H    basis set group =>   4
Atom  29C    basis set group =>   3
Atom  30H    basis set group =>   4
Atom  31H    basis set group =>   4
Atom  32H    basis set group =>   4
Atom  33C    basis set group =>   3
Atom  34H    basis set group =>   4
Atom  35H    basis set group =>   4
Atom  36H    basis set group =>   4
Atom  37C    basis set group =>   3
Atom  38H    basis set group =>   4
Atom  39H    basis set group =>   4
Atom  40H    basis set group =>   4
Atom  41C    basis set group =>   3
Atom  42H    basis set group =>   4
Atom  43H    basis set group =>   4
Atom  44H    basis set group =>   4
---------------------------------
AUXILIARY/J BASIS SET INFORMATION
---------------------------------
There are 4 groups of distinct atoms

 Group   1 Type Pd  : 11s5p5d3f3g contracted to 8s5p5d2f3g pattern {41111111/11111/11111/21/111}
 Group   2 Type O   : 12s5p4d2f1g contracted to 6s4p3d1f1g pattern {711111/2111/211/2/1}
 Group   3 Type C   : 12s5p4d2f1g contracted to 6s4p3d1f1g pattern {711111/2111/211/2/1}
 Group   4 Type H   : 5s2p1d contracted to 3s1p1d pattern {311/2/1}

Atom   0Pd   basis set group =>   1
Atom   1Pd   basis set group =>   1
Atom   2Pd   basis set group =>   1
Atom   3O    basis set group =>   2
Atom   4O    basis set group =>   2
Atom   5O    basis set group =>   2
Atom   6O    basis set group =>   2
Atom   7O    basis set group =>   2
Atom   8O    basis set group =>   2
Atom   9O    basis set group =>   2
Atom  10O    basis set group =>   2
Atom  11O    basis set group =>   2
Atom  12O    basis set group =>   2
Atom  13O    basis set group =>   2
Atom  14O    basis set group =>   2
Atom  15C    basis set group =>   3
Atom  16C    basis set group =>   3
Atom  17C    basis set group =>   3
Atom  18C    basis set group =>   3
Atom  19C    basis set group =>   3
Atom  20C    basis set group =>   3
Atom  21C    basis set group =>   3
Atom  22H    basis set group =>   4
Atom  23H    basis set group =>   4
Atom  24H    basis set group =>   4
Atom  25C    basis set group =>   3
Atom  26H    basis set group =>   4
Atom  27H    basis set group =>   4
Atom  28H    basis set group =>   4
Atom  29C    basis set group =>   3
Atom  30H    basis set group =>   4
Atom  31H    basis set group =>   4
Atom  32H    basis set group =>   4
Atom  33C    basis set group =>   3
Atom  34H    basis set group =>   4
Atom  35H    basis set group =>   4
Atom  36H    basis set group =>   4
Atom  37C    basis set group =>   3
Atom  38H    basis set group =>   4
Atom  39H    basis set group =>   4
Atom  40H    basis set group =>   4
Atom  41C    basis set group =>   3
Atom  42H    basis set group =>   4
Atom  43H    basis set group =>   4
Atom  44H    basis set group =>   4
-------------------------
ECP PARAMETER INFORMATION
-------------------------

 Group 1, Type Pd ECP Def2-ECP (replacing 28 core electrons, lmax=3)

Atom   0Pd   ECP group =>   1
Atom   1Pd   ECP group =>   1
Atom   2Pd   ECP group =>   1



           ************************************************************
           *        Program running with 16 parallel MPI-processes    *
           *              working on a common directory               *
           ************************************************************
------------------------------------------------------------------------------
                             ORCA STARTUP CALCULATIONS
                           -- RI-GTO INTEGRALS CHOSEN --
------------------------------------------------------------------------------
------------------------------------------------------------------------------
                   ___                                                        
                  /   \      - P O W E R E D   B Y -                         
                 /     \                                                     
                 |  |  |   _    _      __       _____    __    __             
                 |  |  |  | |  | |    /  \     |  _  \  |  |  /  |          
                  \  \/   | |  | |   /    \    | | | |  |  | /  /          
                 / \  \   | |__| |  /  /\  \   | |_| |  |  |/  /          
                |  |  |   |  __  | /  /__\  \  |    /   |      \           
                |  |  |   | |  | | |   __   |  |    \   |  |\   \          
                \     /   | |  | | |  |  |  |  | |\  \  |  | \   \       
                 \___/    |_|  |_| |__|  |__|  |_| \__\ |__|  \__/        
                                                                              
                      - O R C A' S   B I G   F R I E N D -                    
                                      &                                       
                       - I N T E G R A L  F E E D E R -                       
                                                                              
 v1 FN, 2020, v2 2021, v3 2022-2024                                           
------------------------------------------------------------------------------


----------------------
SHARK INTEGRAL PACKAGE
----------------------

Number of atoms                             ...     45
Number of basis functions                   ...    972
Number of shells                            ...    378
Maximum angular momentum                    ...      3
Integral batch strategy                     ... SHARK/LIBINT Hybrid
RI-J (if used) integral strategy            ... SPLIT-RIJ (Revised 2003 algorithm where possible)
Printlevel                                  ...      1
Contraction scheme used                     ... SEGMENTED contraction
Prescreening option                         ... SCHWARTZ
   Thresh                                   ... 2.500e-11
   Tcut                                     ... 2.500e-12
   Tpresel                                  ... 2.500e-12 
Coulomb Range Separation                    ... NOT USED
Exchange Range Separation                   ... NOT USED
Multipole approximations                    ... NOT USED
Finite Nucleus Model                        ... NOT USED
CABS basis                                  ... NOT available
Auxiliary Coulomb fitting basis             ... AVAILABLE
   # of basis functions in Aux-J            ...   1641
   # of shells in Aux-J                     ...    519
   Maximum angular momentum in Aux-J        ...      4
Auxiliary J/K fitting basis                 ... NOT available
Auxiliary Correlation fitting basis         ... NOT available
Auxiliary 'external' fitting basis          ... NOT available

Checking pre-screening integrals            ... done (  0.1 sec) Dimension = 378
Check shell pair data                       ... done (  0.1 sec)
Shell pair information
Shell pair cut-off parameter TPreSel        ...   2.5e-12
Total number of shell pairs                 ...     71631
Shell pairs after pre-screening             ...     46355
Total number of primitive shell pairs       ...    212847
Primitive shell pairs kept                  ...     88272
          la=0 lb=0:  11250 shell pairs
          la=1 lb=0:  13396 shell pairs
          la=1 lb=1:   3993 shell pairs
          la=2 lb=0:   6833 shell pairs
          la=2 lb=1:   4139 shell pairs
          la=2 lb=2:   1128 shell pairs
          la=3 lb=0:   2787 shell pairs
          la=3 lb=1:   1728 shell pairs
          la=3 lb=2:    921 shell pairs
          la=3 lb=3:    180 shell pairs

Calculating one electron integrals          ... done (  0.1 sec)
Calculating ECP integrals                   ... done (  2.2 sec)
Calculating RI/J V-Matrix + Cholesky decomp.... done (  0.2 sec)
Calculating Nuclear repulsion               ... done (  0.0 sec) ENN=   3931.443884233937 Eh

Diagonalization of the overlap matrix:
Smallest eigenvalue                        ... 2.828e-04
Time for diagonalization                   ...    0.385 sec
Threshold for overlap eigenvalues          ... 1.000e-07
Number of eigenvalues below threshold      ... 0
Time for construction of square roots      ...    0.232 sec
Total time needed                          ...    0.705 sec

-------------------
DFT GRID GENERATION
-------------------

General Integration Accuracy     IntAcc      ... 4.388
Radial Grid Type                 RadialGrid  ... OptM3 with GC (2021)
Angular Grid (max. ang.)         AngularGrid ... 4 (Lebedev-302)
Angular grid pruning method      GridPruning ... 4 (adaptive)
Weight generation scheme         WeightScheme... mBecke (2022)
Basis function cutoff            BFCut       ... 1.0000e-11
Integration weight cutoff        WCut        ... 1.0000e-14
Partially contracted basis set               ... off
Rotationally invariant grid construction     ... off
Angular grids for H and He will be reduced by one unit

Total number of grid points                  ...   229988
Total number of batches                      ...     3615
Average number of points per batch           ...       63
Average number of grid points per atom       ...     5111

--------------------
COSX GRID GENERATION
--------------------

GRIDX 1
-------
General Integration Accuracy     IntAcc      ... 3.816
Radial Grid Type                 RadialGrid  ... OptM3 with GC (2021)
Angular Grid (max. ang.)         AngularGrid ... 1 (Lebedev-50)
Angular grid pruning method      GridPruning ... 4 (adaptive)
Weight generation scheme         WeightScheme... mBecke (2022)
Basis function cutoff            BFCut       ... 1.0000e-11
Integration weight cutoff        WCut        ... 1.0000e-14
Partially contracted basis set               ... on
Rotationally invariant grid construction     ... off
Angular grids for H and He will be reduced by one unit

Total number of grid points                  ...    38715
Total number of batches                      ...      331
Average number of points per batch           ...      116
Average number of grid points per atom       ...      860
UseSFitting                                  ... on

GRIDX 2
-------
General Integration Accuracy     IntAcc      ... 4.020
Radial Grid Type                 RadialGrid  ... OptM3 with GC (2021)
Angular Grid (max. ang.)         AngularGrid ... 2 (Lebedev-110)
Angular grid pruning method      GridPruning ... 4 (adaptive)
Weight generation scheme         WeightScheme... mBecke (2022)
Basis function cutoff            BFCut       ... 1.0000e-11
Integration weight cutoff        WCut        ... 1.0000e-14
Partially contracted basis set               ... on
Rotationally invariant grid construction     ... off
Angular grids for H and He will be reduced by one unit

Total number of grid points                  ...    69027
Total number of batches                      ...      565
Average number of points per batch           ...      122
Average number of grid points per atom       ...     1534
UseSFitting                                  ... on

GRIDX 3
-------
General Integration Accuracy     IntAcc      ... 4.338
Radial Grid Type                 RadialGrid  ... OptM3 with GC (2021)
Angular Grid (max. ang.)         AngularGrid ... 3 (Lebedev-194)
Angular grid pruning method      GridPruning ... 4 (adaptive)
Weight generation scheme         WeightScheme... mBecke (2022)
Basis function cutoff            BFCut       ... 1.0000e-11
Integration weight cutoff        WCut        ... 1.0000e-14
Partially contracted basis set               ... on
Rotationally invariant grid construction     ... off
Angular grids for H and He will be reduced by one unit

Total number of grid points                  ...   135809
Total number of batches                      ...     1080
Average number of points per batch           ...      125
Average number of grid points per atom       ...     3018
UseSFitting                                  ... on
Initializing property integral containers    ... done (  0.2 sec)

SHARK setup successfully completed in  11.6 seconds

Maximum memory used throughout the entire STARTUP-calculation: 96.7 MB


           ************************************************************
           *        Program running with 16 parallel MPI-processes    *
           *              working on a common directory               *
           ************************************************************
-------------------------------------------------------------------------------
                                 ORCA GUESS
                   Start orbitals & Density for SCF / CASSCF
-------------------------------------------------------------------------------

------------
SCF SETTINGS
------------
Hamiltonian:
 Density Functional     Method          .... DFT(GTOs)
 Exchange Functional    Exchange        .... TPSS
 Correlation Functional Correlation     .... TPSS
 LDA part of GGA corr.  LDAOpt          .... PW91-LDA
 Gradients option       PostSCFGGA      .... off
 Hybrid DFT is turned on
   Fraction HF Exchange ScalHFX         ....  0.100000
   Scaling of DF-GGA-X  ScalDFX         ....  0.900000
   Scaling of DF-GGA-C  ScalDFC         ....  1.000000
   Scaling of DF-LDA-C  ScalLDAC        ....  1.000000
   Perturbative correction              ....  0.000000
   NL short-range parameter             ....  5.200000
 RI-approximation to the Coulomb term is turned on
   Number of AuxJ basis functions       .... 1641
   RIJ-COSX (HFX calculated with COS-X)).... on


General Settings:
 Integral files         IntName         .... CS_PdOAc_001_sp_01
 Hartree-Fock type      HFTyp           .... RHF
 Total Charge           Charge          ....    0
 Multiplicity           Mult            ....    1
 Number of Electrons    NEL             ....  240
 Basis Dimension        Dim             ....  972
 Nuclear Repulsion      ENuc            ....   3931.4438842339 Eh

Convergence Acceleration:
 AO-DIIS                CNVDIIS         .... on
   Start iteration      DIISMaxIt       ....     0
   Startup error        DIISStart       ....  0.200000
   # of expansion vecs  DIISMaxEq       ....     5
   Bias factor          DIISBfac        ....   1.050
   Max. coefficient     DIISMaxC        ....  10.000
 MO-DIIS                CNVKDIIS        .... off
 Trust-Rad. Augm. Hess. CNVTRAH         .... auto
   Auto Start mean grad. ratio tolernc. ....  1.125000
   Auto Start start iteration           ....    50
   Auto Start num. interpolation iter.  ....    10
   Max. Number of Micro iterations      ....    24
   Max. Number of Macro iterations      .... Maxiter - #DIIS iter
   Number of Davidson start vectors     ....     2
   Converg. threshold    (grad. norm)   ....   1.000e-05
   Grad. Scal. Fac. for Micro threshold ....   0.100
   Minimum threshold for Micro iter.    ....   1.000e-02
   NR start threshold (gradient norm)   ....   1.000e-04
   Initial trust radius                 ....   0.400
   Minimum AH scaling param. (alpha)    ....   1.000
   Maximum AH scaling param. (alpha)    .... 1000.000
   Quad. conv. algorithm                .... NR
   White noise on init. David. guess    .... on
   Maximum white noise                  ....   0.010
   Pseudo random numbers                .... off
   Inactive MOs                         .... canonical
   Orbital update algorithm             .... Taylor
   Preconditioner                       .... Diag
   Full preconditioner red. dimension   ....   250
 SOSCF                  CNVSOSCF        .... on
   Start iteration      SOSCFMaxIt      ....   150
   Startup grad/error   SOSCFStart      ....  0.001000
   Hessian update       SOSCFHessUp     .... L-BFGS
 Level Shifting         CNVShift        .... on
   Level shift para.    LevelShift      ....    0.2500
   Turn off err/grad.   ShiftErr        ....    0.0000
 Zerner damping         CNVZerner       .... off
 Static damping         CNVDamp         .... on
   Fraction old density DampFac         ....    0.8500
   Max. Damping (<1)    DampMax         ....    0.9800
   Min. Damping (>=0)   DampMin         ....    0.0000
   Turn off err/grad.   DampErr         ....    0.0300

SCF Procedure:
 Maximum # iterations   MaxIter         ....  1500
 SCF integral mode      SCFMode         .... Direct
   Integral package                     .... SHARK and LIBINT hybrid scheme
 Reset frequency        DirectResetFreq ....    20
 Integral Threshold     Thresh          ....  2.500e-11 Eh
 Primitive CutOff       TCut            ....  2.500e-12 Eh

Convergence Tolerance:
 Convergence Check Mode ConvCheckMode   .... Total+1el-Energy
 Convergence forced     ConvForced      .... 0
 Energy Change          TolE            ....  1.000e-08 Eh
 1-El. energy change                    ....  1.000e-05 Eh
 Orbital Gradient       TolG            ....  1.000e-05
 Orbital Rotation angle TolX            ....  1.000e-05
 DIIS Error             TolErr          ....  5.000e-07

------------------------------
INITIAL GUESS: MODEL POTENTIAL
------------------------------
Loading Hartree-Fock densities                     ... done
Atomic calculation to generate a density for atom 0 (Pd with ECP)
  Multiplicity assumed   :    3
  Atomic configuration   : 1s2 2s2 2p6 3s2 3p6 4s2 3d10 4p6 5s2 4d8 
  Number of open shells  : 1
  Command: /opt/apps/software/ORCA/6.0.0-gompi-2023b/bin/orca CS_PdOAc_001_sp_01_atom46.inp "" > CS_PdOAc_001_sp_01_atom46.out
Returned from the atomic calculation with res=0
Calculating cut-offs                               ... done
Initializing the effective Hamiltonian             ... done
Setting up the integral package (SHARK)            ... done
Starting the Coulomb interaction                   ... done (   0.9 sec)
Making the grid                                    ... done (   0.8 sec)
Mapping shells                                     ... done
Starting the XC term evaluation                    ... done (   0.3 sec)
  promolecular density results
     # of electrons  =    323.973552280
     EX              =   -580.303123239
     EC              =    -13.624873643
     EX+EC           =   -593.927996882
Transforming the Hamiltonian                       ... done (   0.3 sec)
Diagonalizing the Hamiltonian                      ... done (   0.4 sec)
Back transforming the eigenvectors                 ... done (   0.2 sec)
Now organizing SCF variables                       ... done
                      ------------------
                      INITIAL GUESS DONE (  13.8 sec)
                      ------------------
             **** ENERGY FILE WAS UPDATED (CS_PdOAc_001_sp_01.en.tmp) ****
Finished Guess after  15.5 sec
Maximum memory used throughout the entire GUESS-calculation: 79.6 MB


           ************************************************************
           *        Program running with 16 parallel MPI-processes    *
           *              working on a common directory               *
           ************************************************************

-------------------------------------------------------------------------------------------
                                      ORCA LEAN-SCF
                              memory conserving SCF solver
-------------------------------------------------------------------------------------------

----------------------------------------D-I-I-S--------------------------------------------
Iteration    Energy (Eh)           Delta-E    RMSDP     MaxDP     DIISErr   Damp  Time(sec)
-------------------------------------------------------------------------------------------
               ***  Starting incremental Fock matrix formation  ***
    1    -1754.4128030507367839     0.00e+00  4.25e-04  2.37e-02  4.68e-01  0.850  19.0
    2    -1754.6739979538410807    -2.61e-01  4.23e-04  1.93e-02  3.95e-01  0.850  12.8
                               ***Turning on AO-DIIS***
    3    -1754.8319266204184714    -1.58e-01  2.38e-04  1.42e-02  3.32e-01  0.850  14.1
    4    -1754.9285779071146862    -9.67e-02  1.56e-04  1.13e-02  2.81e-01  0.850  13.2
    5    -1754.9968891233761497    -6.83e-02  1.14e-04  9.01e-03  2.38e-01  0.850  12.1
    6    -1755.0506155540747386    -5.37e-02  9.23e-05  7.38e-03  2.03e-01  0.850  13.1
    7    -1755.0950521340168962    -4.44e-02  7.94e-05  6.33e-03  1.72e-01  0.850  11.8
    8    -1755.1322591925277266    -3.72e-02  6.78e-05  5.76e-03  1.47e-01  0.850  10.7
    9    -1755.1629339200840150    -3.07e-02  5.72e-05  4.98e-03  1.25e-01  0.850  10.6
   10    -1755.1882013703584562    -2.53e-02  4.79e-05  4.10e-03  1.06e-01  0.850  10.5
   11    -1755.2091510336263127    -2.09e-02  4.02e-05  3.39e-03  8.98e-02  0.850  10.5
   12    -1755.2266244009701950    -1.75e-02  3.40e-05  2.88e-03  7.63e-02  0.850  11.1
   13    -1755.2412407088418149    -1.46e-02  2.87e-05  2.50e-03  6.49e-02  0.850  13.6
   14    -1755.2534864873227889    -1.22e-02  2.42e-05  2.13e-03  5.51e-02  0.850  10.6
   15    -1755.2637692409984993    -1.03e-02  2.04e-05  1.79e-03  4.68e-02  0.850  11.1
   16    -1755.2724246295015291    -8.66e-03  1.72e-05  1.50e-03  3.98e-02  0.850  10.0
   17    -1755.2797238525795365    -7.30e-03  1.46e-05  1.28e-03  3.38e-02  0.850  10.1
   18    -1755.2858869938304451    -6.16e-03  1.23e-05  1.09e-03  2.87e-02  0.850  10.9
   19    -1755.2910958048601060    -5.21e-03  6.95e-05  6.19e-03  2.44e-02  0.000  10.2
                              *** Initializing SOSCF ***
---------------------------------------S-O-S-C-F--------------------------------------
Iteration    Energy (Eh)           Delta-E    RMSDP     MaxDP     MaxGrad    Time(sec)
--------------------------------------------------------------------------------------
   20    -1755.3201427965609582    -2.90e-02  3.61e-06  1.92e-04  3.93e-04    12.8
               *** Restarting incremental Fock matrix formation ***
   21    -1755.3201418692001425     9.27e-07  3.54e-06  1.99e-04  4.95e-05    19.0
   22    -1755.3201411755067056     6.94e-07  1.83e-06  1.65e-04  1.14e-04    10.5
   23    -1755.3201421702283369    -9.95e-07  1.11e-06  1.46e-04  2.89e-05    10.6
   24    -1755.3201419365263973     2.34e-07  7.35e-07  8.50e-05  5.89e-05     9.3
   25    -1755.3201422312345130    -2.95e-07  1.39e-07  9.26e-06  1.89e-06     8.6
                  *** Gradient check signals convergence ***

               *****************************************************
               *                     SUCCESS                       *
               *           SCF CONVERGED AFTER  25 CYCLES          *
               *****************************************************

Recomputing exchange energy using gridx3       ... done (   20.375 sec)
Old exchange energy                            :    -20.292818386 Eh
New exchange energy                            :    -20.292821495 Eh
Exchange energy change after final integration :     -0.000003108 Eh
Total energy after final integration           :  -1755.320145339 Eh
             **** ENERGY FILE WAS UPDATED (CS_PdOAc_001_sp_01.en.tmp) ****

----------------
TOTAL SCF ENERGY
----------------

Total Energy       :      -1755.32014533943584 Eh          -47764.68946 eV

Components:
Nuclear Repulsion  :       3931.44388423393730 Eh          106980.02685 eV
Electronic Energy  :      -5686.76402646517181 Eh         -154744.71623 eV
One Electron Energy:     -10397.35667742728947 Eh         -282926.45890 eV
Two Electron Energy:       4710.59265096211766 Eh          128181.74267 eV

Virial components:
Potential Energy   :      -3265.39116699767965 Eh          -88855.81100 eV
Kinetic Energy     :       1510.07102165824404 Eh           41091.12153 eV
Virial Ratio       :          2.16240899942036

DFT components:
N(Alpha)           :      119.999841827541 electrons
N(Beta)            :      119.999841827541 electrons
N(Total)           :      239.999683655081 electrons
E(X)               :     -184.372777571926 Eh       
E(C)               :       -8.689555436588 Eh       
E(XC)              :     -193.062333008514 Eh       

---------------
SCF CONVERGENCE
---------------

  Last Energy change         ...    2.9471e-07  Tolerance :   1.0000e-08
  Last MAX-Density change    ...    9.2605e-06  Tolerance :   1.0000e-07
  Last RMS-Density change    ...    1.3931e-07  Tolerance :   5.0000e-09
  Last DIIS Error            ...    3.9291e-04  Tolerance :   5.0000e-07
  Last Orbital Gradient      ...    1.8927e-06  Tolerance :   1.0000e-05
  Last Orbital Rotation      ...    3.7165e-06  Tolerance :   1.0000e-05


----------------
ORBITAL ENERGIES
----------------

  NO   OCC          E(Eh)            E(eV) 
   0   2.0000     -19.069576      -518.9095 
   1   2.0000     -19.069555      -518.9090 
   2   2.0000     -19.069525      -518.9082 
   3   2.0000     -19.069424      -518.9054 
   4   2.0000     -19.069397      -518.9047 
   5   2.0000     -19.069389      -518.9045 
   6   2.0000     -19.067015      -518.8399 
   7   2.0000     -19.066975      -518.8388 
   8   2.0000     -19.066956      -518.8382 
   9   2.0000     -19.066856      -518.8355 
  10   2.0000     -19.066828      -518.8348 
  11   2.0000     -19.066796      -518.8339 
  12   2.0000     -10.238635      -278.6074 
  13   2.0000     -10.238630      -278.6073 
  14   2.0000     -10.238628      -278.6072 
  15   2.0000     -10.238620      -278.6070 
  16   2.0000     -10.238611      -278.6068 
  17   2.0000     -10.238591      -278.6062 
  18   2.0000     -10.124303      -275.4963 
  19   2.0000     -10.124291      -275.4960 
  20   2.0000     -10.124275      -275.4955 
  21   2.0000     -10.124260      -275.4951 
  22   2.0000     -10.124252      -275.4949 
  23   2.0000     -10.124211      -275.4938 
  24   2.0000      -3.438883       -93.5768 
  25   2.0000      -3.438833       -93.5754 
  26   2.0000      -3.438828       -93.5753 
  27   2.0000      -2.143865       -58.3375 
  28   2.0000      -2.143857       -58.3373 
  29   2.0000      -2.143851       -58.3372 
  30   2.0000      -2.142904       -58.3114 
  31   2.0000      -2.142896       -58.3112 
  32   2.0000      -2.142665       -58.3049 
  33   2.0000      -2.100246       -57.1506 
  34   2.0000      -2.099453       -57.1290 
  35   2.0000      -2.099446       -57.1288 
  36   2.0000      -1.072241       -29.1772 
  37   2.0000      -1.068297       -29.0698 
  38   2.0000      -1.068260       -29.0688 
  39   2.0000      -1.065790       -29.0016 
  40   2.0000      -1.065776       -29.0012 
  41   2.0000      -1.065586       -28.9961 
  42   2.0000      -0.985372       -26.8133 
  43   2.0000      -0.985349       -26.8127 
  44   2.0000      -0.981993       -26.7214 
  45   2.0000      -0.981570       -26.7099 
  46   2.0000      -0.981551       -26.7094 
  47   2.0000      -0.979913       -26.6648 
  48   2.0000      -0.728192       -19.8151 
  49   2.0000      -0.725791       -19.7498 
  50   2.0000      -0.725763       -19.7490 
  51   2.0000      -0.725709       -19.7476 
  52   2.0000      -0.725676       -19.7466 
  53   2.0000      -0.724754       -19.7216 
  54   2.0000      -0.563016       -15.3204 
  55   2.0000      -0.552553       -15.0357 
  56   2.0000      -0.552542       -15.0354 
  57   2.0000      -0.547724       -14.9043 
  58   2.0000      -0.547693       -14.9035 
  59   2.0000      -0.544461       -14.8155 
  60   2.0000      -0.509876       -13.8744 
  61   2.0000      -0.504412       -13.7257 
  62   2.0000      -0.504382       -13.7249 
  63   2.0000      -0.491934       -13.3862 
  64   2.0000      -0.491921       -13.3858 
  65   2.0000      -0.478261       -13.0141 
  66   2.0000      -0.471571       -12.8321 
  67   2.0000      -0.460482       -12.5303 
  68   2.0000      -0.460464       -12.5299 
  69   2.0000      -0.458495       -12.4763 
  70   2.0000      -0.458205       -12.4684 
  71   2.0000      -0.458177       -12.4676 
  72   2.0000      -0.458005       -12.4629 
  73   2.0000      -0.451930       -12.2976 
  74   2.0000      -0.451920       -12.2974 
  75   2.0000      -0.451392       -12.2830 
  76   2.0000      -0.444561       -12.0971 
  77   2.0000      -0.444548       -12.0968 
  78   2.0000      -0.396276       -10.7832 
  79   2.0000      -0.396274       -10.7832 
  80   2.0000      -0.395836       -10.7712 
  81   2.0000      -0.395831       -10.7711 
  82   2.0000      -0.395592       -10.7646 
  83   2.0000      -0.394220       -10.7273 
  84   2.0000      -0.387455       -10.5432 
  85   2.0000      -0.381956       -10.3935 
  86   2.0000      -0.381912       -10.3924 
  87   2.0000      -0.374745       -10.1973 
  88   2.0000      -0.368522       -10.0280 
  89   2.0000      -0.368504       -10.0275 
  90   2.0000      -0.354002        -9.6329 
  91   2.0000      -0.353977        -9.6322 
  92   2.0000      -0.341785        -9.3005 
  93   2.0000      -0.330988        -9.0066 
  94   2.0000      -0.330935        -9.0052 
  95   2.0000      -0.319784        -8.7018 
  96   2.0000      -0.319763        -8.7012 
  97   2.0000      -0.310931        -8.4609 
  98   2.0000      -0.309087        -8.4107 
  99   2.0000      -0.308737        -8.4012 
 100   2.0000      -0.308694        -8.4000 
 101   2.0000      -0.299501        -8.1498 
 102   2.0000      -0.299480        -8.1493 
 103   2.0000      -0.293863        -7.9964 
 104   2.0000      -0.293317        -7.9816 
 105   2.0000      -0.290724        -7.9110 
 106   2.0000      -0.290691        -7.9101 
 107   2.0000      -0.286044        -7.7836 
 108   2.0000      -0.273317        -7.4373 
 109   2.0000      -0.266335        -7.2473 
 110   2.0000      -0.252592        -6.8734 
 111   2.0000      -0.252562        -6.8726 
 112   2.0000      -0.250806        -6.8248 
 113   2.0000      -0.246333        -6.7031 
 114   2.0000      -0.246302        -6.7022 
 115   2.0000      -0.231366        -6.2958 
 116   2.0000      -0.231355        -6.2955 
 117   2.0000      -0.226053        -6.1512 
 118   2.0000      -0.205087        -5.5807 
 119   2.0000      -0.205036        -5.5793 
 120   0.0000      -0.109446        -2.9782 
 121   0.0000      -0.090701        -2.4681 
 122   0.0000      -0.090669        -2.4672 
 123   0.0000      -0.010833        -0.2948 
 124   0.0000      -0.009371        -0.2550 
 125   0.0000      -0.009245        -0.2516 
 126   0.0000      -0.007429        -0.2021 
 127   0.0000      -0.002615        -0.0712 
 128   0.0000      -0.002592        -0.0705 
 129   0.0000       0.012130         0.3301 
 130   0.0000       0.027032         0.7356 
*Only the first 10 virtual orbitals were printed.

                    ********************************
                    * MULLIKEN POPULATION ANALYSIS *
                    ********************************

-----------------------
MULLIKEN ATOMIC CHARGES
-----------------------
   0 Pd:    0.483921
   1 Pd:    0.484677
   2 Pd:    0.484034
   3 O :   -0.410907
   4 O :   -0.401590
   5 O :   -0.400660
   6 O :   -0.410864
   7 O :   -0.401110
   8 O :   -0.411059
   9 O :   -0.410400
  10 O :   -0.401121
  11 O :   -0.410434
  12 O :   -0.400833
  13 O :   -0.410562
  14 O :   -0.401089
  15 C :    0.490564
  16 C :    0.489572
  17 C :    0.490370
  18 C :    0.490737
  19 C :    0.490458
  20 C :    0.489961
  21 C :   -0.342856
  22 H :    0.143400
  23 H :    0.137859
  24 H :    0.140780
  25 C :   -0.342540
  26 H :    0.140875
  27 H :    0.143292
  28 H :    0.137726
  29 C :   -0.342999
  30 H :    0.137876
  31 H :    0.140883
  32 H :    0.143402
  33 C :   -0.342593
  34 H :    0.141312
  35 H :    0.143486
  36 H :    0.137363
  37 C :   -0.342434
  38 H :    0.143379
  39 H :    0.137412
  40 H :    0.141310
  41 C :   -0.342821
  42 H :    0.137555
  43 H :    0.141221
  44 H :    0.143446
Sum of atomic charges:   -0.0000000

--------------------------------
MULLIKEN REDUCED ORBITAL CHARGES
--------------------------------
  0 Pds       :     2.544036  s :     2.544036
      pz      :     2.103011  p :     6.325163
      px      :     2.121689
      py      :     2.100463
      dz2     :     1.884882  d :     8.641603
      dxz     :     1.041757
      dyz     :     1.821418
      dx2y2   :     1.947411
      dxy     :     1.946134
      f0      :     0.000606  f :     0.005278
      f+1     :     0.001610
      f-1     :     0.000436
      f+2     :     0.000987
      f-2     :     0.001001
      f+3     :     0.000252
      f-3     :     0.000386

  1 Pds       :     2.544340  s :     2.544340
      pz      :     2.102840  p :     6.324497
      px      :     2.114709
      py      :     2.106948
      dz2     :     1.873985  d :     8.641205
      dxz     :     1.295788
      dyz     :     1.581437
      dx2y2   :     1.981256
      dxy     :     1.908740
      f0      :     0.000624  f :     0.005281
      f+1     :     0.001235
      f-1     :     0.000809
      f+2     :     0.000531
      f-2     :     0.001435
      f+3     :     0.000254
      f-3     :     0.000394

  2 Pds       :     2.544296  s :     2.544296
      pz      :     2.103070  p :     6.324939
      px      :     2.096516
      py      :     2.125354
      dz2     :     1.876475  d :     8.641451
      dxz     :     1.969081
      dyz     :     0.905126
      dx2y2   :     1.909145
      dxy     :     1.981623
      f0      :     0.000620  f :     0.005280
      f+1     :     0.000216
      f-1     :     0.001828
      f+2     :     0.001444
      f-2     :     0.000526
      f+3     :     0.000256
      f-3     :     0.000390

  3 O s       :     3.860436  s :     3.860436
      pz      :     1.498232  p :     4.517424
      px      :     1.384793
      py      :     1.634399
      dz2     :     0.005425  d :     0.031119
      dxz     :     0.005562
      dyz     :     0.005646
      dx2y2   :     0.007058
      dxy     :     0.007427
      f0      :     0.000188  f :     0.001928
      f+1     :     0.000407
      f-1     :     0.000135
      f+2     :     0.000315
      f-2     :     0.000375
      f+3     :     0.000272
      f-3     :     0.000236

  4 O s       :     3.859593  s :     3.859593
      pz      :     1.567165  p :     4.508047
      px      :     1.304048
      py      :     1.636834
      dz2     :     0.005285  d :     0.032056
      dxz     :     0.007729
      dyz     :     0.002718
      dx2y2   :     0.008103
      dxy     :     0.008221
      f0      :     0.000200  f :     0.001894
      f+1     :     0.000308
      f-1     :     0.000064
      f+2     :     0.000327
      f-2     :     0.000123
      f+3     :     0.000410
      f-3     :     0.000462

  5 O s       :     3.858948  s :     3.858948
      pz      :     1.566307  p :     4.507801
      px      :     1.463820
      py      :     1.477673
      dz2     :     0.005281  d :     0.032017
      dxz     :     0.003953
      dyz     :     0.006471
      dx2y2   :     0.008210
      dxy     :     0.008102
      f0      :     0.000199  f :     0.001894
      f+1     :     0.000170
      f-1     :     0.000204
      f+2     :     0.000125
      f-2     :     0.000325
      f+3     :     0.000402
      f-3     :     0.000469

  6 O s       :     3.860251  s :     3.860251
      pz      :     1.499056  p :     4.517609
      px      :     1.531886
      py      :     1.486667
      dz2     :     0.005407  d :     0.031076
      dxz     :     0.003256
      dyz     :     0.007919
      dx2y2   :     0.007457
      dxy     :     0.007037
      f0      :     0.000187  f :     0.001928
      f+1     :     0.000104
      f-1     :     0.000436
      f+2     :     0.000375
      f-2     :     0.000314
      f+3     :     0.000260
      f-3     :     0.000250

  7 O s       :     3.859278  s :     3.859278
      pz      :     1.565839  p :     4.507877
      px      :     1.546777
      py      :     1.395261
      dz2     :     0.005330  d :     0.032060
      dxz     :     0.002896
      dyz     :     0.007547
      dx2y2   :     0.008285
      dxy     :     0.008001
      f0      :     0.000199  f :     0.001895
      f+1     :     0.000112
      f-1     :     0.000265
      f+2     :     0.000251
      f-2     :     0.000201
      f+3     :     0.000408
      f-3     :     0.000460

  8 O s       :     3.859896  s :     3.859896
      pz      :     1.503772  p :     4.518149
      px      :     1.385235
      py      :     1.629143
      dz2     :     0.005324  d :     0.031086
      dxz     :     0.006732
      dyz     :     0.004370
      dx2y2   :     0.007761
      dxy     :     0.006899
      f0      :     0.000185  f :     0.001928
      f+1     :     0.000468
      f-1     :     0.000068
      f+2     :     0.000343
      f-2     :     0.000338
      f+3     :     0.000267
      f-3     :     0.000259

  9 O s       :     3.859979  s :     3.859979
      pz      :     1.499594  p :     4.517382
      px      :     1.590617
      py      :     1.427171
      dz2     :     0.005394  d :     0.031110
      dxz     :     0.003572
      dyz     :     0.007599
      dx2y2   :     0.007930
      dxy     :     0.006614
      f0      :     0.000186  f :     0.001929
      f+1     :     0.000060
      f-1     :     0.000482
      f+2     :     0.000376
      f-2     :     0.000312
      f+3     :     0.000275
      f-3     :     0.000239

 10 O s       :     3.858951  s :     3.858951
      pz      :     1.563572  p :     4.508251
      px      :     1.333172
      py      :     1.611507
      dz2     :     0.005317  d :     0.032024
      dxz     :     0.007983
      dyz     :     0.002454
      dx2y2   :     0.008234
      dxy     :     0.008035
      f0      :     0.000198  f :     0.001895
      f+1     :     0.000307
      f-1     :     0.000072
      f+2     :     0.000351
      f-2     :     0.000103
      f+3     :     0.000398
      f-3     :     0.000465

 11 O s       :     3.859898  s :     3.859898
      pz      :     1.502874  p :     4.517502
      px      :     1.550662
      py      :     1.463966
      dz2     :     0.005335  d :     0.031106
      dxz     :     0.007585
      dyz     :     0.003533
      dx2y2   :     0.006889
      dxy     :     0.007765
      f0      :     0.000185  f :     0.001928
      f+1     :     0.000341
      f-1     :     0.000196
      f+2     :     0.000338
      f-2     :     0.000344
      f+3     :     0.000280
      f-3     :     0.000244

 12 O s       :     3.859112  s :     3.859112
      pz      :     1.566410  p :     4.507808
      px      :     1.616656
      py      :     1.324742
      dz2     :     0.005320  d :     0.032018
      dxz     :     0.003707
      dyz     :     0.006711
      dx2y2   :     0.007996
      dxy     :     0.008283
      f0      :     0.000199  f :     0.001895
      f+1     :     0.000090
      f-1     :     0.000286
      f+2     :     0.000198
      f-2     :     0.000253
      f+3     :     0.000401
      f-3     :     0.000468

 13 O s       :     3.859799  s :     3.859799
      pz      :     1.499033  p :     4.517766
      px      :     1.608390
      py      :     1.410343
      dz2     :     0.005396  d :     0.031068
      dxz     :     0.006762
      dyz     :     0.004413
      dx2y2   :     0.006582
      dxy     :     0.007914
      f0      :     0.000187  f :     0.001929
      f+1     :     0.000235
      f-1     :     0.000307
      f+2     :     0.000312
      f-2     :     0.000377
      f+3     :     0.000260
      f-3     :     0.000252

 14 O s       :     3.859087  s :     3.859087
      pz      :     1.563791  p :     4.508056
      px      :     1.562474
      py      :     1.381791
      dz2     :     0.005310  d :     0.032051
      dxz     :     0.005112
      dyz     :     0.005347
      dx2y2   :     0.008037
      dxy     :     0.008245
      f0      :     0.000198  f :     0.001895
      f+1     :     0.000141
      f-1     :     0.000238
      f+2     :     0.000104
      f-2     :     0.000351
      f+3     :     0.000406
      f-3     :     0.000456

 15 C s       :     3.077390  s :     3.077390
      pz      :     0.746901  p :     2.122712
      px      :     0.723889
      py      :     0.651922
      dz2     :     0.051515  d :     0.282591
      dxz     :     0.026966
      dyz     :     0.068850
      dx2y2   :     0.067783
      dxy     :     0.067476
      f0      :     0.002616  f :     0.026743
      f+1     :     0.001202
      f-1     :     0.005644
      f+2     :     0.003419
      f-2     :     0.004318
      f+3     :     0.003529
      f-3     :     0.006014

 16 C s       :     3.078275  s :     3.078275
      pz      :     0.746744  p :     2.122739
      px      :     0.721789
      py      :     0.654206
      dz2     :     0.051224  d :     0.282672
      dxz     :     0.037381
      dyz     :     0.058345
      dx2y2   :     0.076832
      dxy     :     0.058890
      f0      :     0.002626  f :     0.026742
      f+1     :     0.001270
      f-1     :     0.005480
      f+2     :     0.002288
      f-2     :     0.005446
      f+3     :     0.004518
      f-3     :     0.005114

 17 C s       :     3.078277  s :     3.078277
      pz      :     0.746510  p :     2.121791
      px      :     0.682007
      py      :     0.693275
      dz2     :     0.051922  d :     0.282817
      dxz     :     0.032649
      dyz     :     0.063207
      dx2y2   :     0.067728
      dxy     :     0.067311
      f0      :     0.002651  f :     0.026745
      f+1     :     0.003865
      f-1     :     0.002940
      f+2     :     0.004299
      f-2     :     0.003451
      f+3     :     0.004468
      f-3     :     0.005072

 18 C s       :     3.078447  s :     3.078447
      pz      :     0.745387  p :     2.121190
      px      :     0.674887
      py      :     0.700916
      dz2     :     0.050946  d :     0.282879
      dxz     :     0.072059
      dyz     :     0.024011
      dx2y2   :     0.058520
      dxy     :     0.077342
      f0      :     0.002614  f :     0.026747
      f+1     :     0.004059
      f-1     :     0.002710
      f+2     :     0.005464
      f-2     :     0.002274
      f+3     :     0.003529
      f-3     :     0.006097

 19 C s       :     3.078367  s :     3.078367
      pz      :     0.746437  p :     2.121824
      px      :     0.664643
      py      :     0.710743
      dz2     :     0.051028  d :     0.282614
      dxz     :     0.045600
      dyz     :     0.049843
      dx2y2   :     0.076541
      dxy     :     0.059602
      f0      :     0.002539  f :     0.026738
      f+1     :     0.004914
      f-1     :     0.001939
      f+2     :     0.002781
      f-2     :     0.004903
      f+3     :     0.003563
      f-3     :     0.006100

 20 C s       :     3.078254  s :     3.078254
      pz      :     0.746690  p :     2.122248
      px      :     0.659543
      py      :     0.716015
      dz2     :     0.051409  d :     0.282793
      dxz     :     0.073351
      dyz     :     0.022063
      dx2y2   :     0.059336
      dxy     :     0.076634
      f0      :     0.002558  f :     0.026744
      f+1     :     0.005126
      f-1     :     0.001717
      f+2     :     0.004926
      f-2     :     0.002767
      f+3     :     0.004563
      f-3     :     0.005086

 21 C s       :     3.225341  s :     3.225341
      pz      :     0.983257  p :     3.061577
      px      :     0.999126
      py      :     1.079193
      dz2     :     0.010690  d :     0.051374
      dxz     :     0.011521
      dyz     :     0.010081
      dx2y2   :     0.005780
      dxy     :     0.013302
      f0      :     0.000508  f :     0.004564
      f+1     :     0.000916
      f-1     :     0.000477
      f+2     :     0.000554
      f-2     :     0.001169
      f+3     :     0.000455
      f-3     :     0.000484

 22 H s       :     0.837005  s :     0.837005
      pz      :     0.004867  p :     0.019595
      px      :     0.005004
      py      :     0.009724

 23 H s       :     0.842094  s :     0.842094
      pz      :     0.008664  p :     0.020047
      px      :     0.005657
      py      :     0.005726

 24 H s       :     0.839549  s :     0.839549
      pz      :     0.004565  p :     0.019671
      px      :     0.008158
      py      :     0.006949

 25 C s       :     3.225181  s :     3.225181
      pz      :     0.984335  p :     3.061434
      px      :     1.061141
      py      :     1.015959
      dz2     :     0.010876  d :     0.051362
      dxz     :     0.012898
      dyz     :     0.008321
      dx2y2   :     0.014653
      dxy     :     0.004615
      f0      :     0.000494  f :     0.004562
      f+1     :     0.000710
      f-1     :     0.000709
      f+2     :     0.001092
      f-2     :     0.000602
      f+3     :     0.000475
      f-3     :     0.000480

 26 H s       :     0.839464  s :     0.839464
      pz      :     0.004564  p :     0.019661
      px      :     0.004339
      py      :     0.010758

 27 H s       :     0.837111  s :     0.837111
      pz      :     0.004806  p :     0.019598
      px      :     0.010707
      py      :     0.004084

 28 H s       :     0.842220  s :     0.842220
      pz      :     0.008770  p :     0.020055
      px      :     0.006685
      py      :     0.004600

 29 C s       :     3.225374  s :     3.225374
      pz      :     0.985193  p :     3.061676
      px      :     1.055598
      py      :     1.020885
      dz2     :     0.010572  d :     0.051386
      dxz     :     0.007758
      dyz     :     0.013865
      dx2y2   :     0.008335
      dxy     :     0.010856
      f0      :     0.000499  f :     0.004563
      f+1     :     0.000473
      f-1     :     0.000900
      f+2     :     0.000914
      f-2     :     0.000835
      f+3     :     0.000462
      f-3     :     0.000480

 30 H s       :     0.842074  s :     0.842074
      pz      :     0.008699  p :     0.020050
      px      :     0.004654
      py      :     0.006696

 31 H s       :     0.839450  s :     0.839450
      pz      :     0.004608  p :     0.019667
      px      :     0.010130
      py      :     0.004929

 32 H s       :     0.837004  s :     0.837004
      pz      :     0.004869  p :     0.019593
      px      :     0.006426
      py      :     0.008298

 33 C s       :     3.225659  s :     3.225659
      pz      :     0.983865  p :     3.061041
      px      :     1.042925
      py      :     1.034251
      dz2     :     0.011081  d :     0.051330
      dxz     :     0.013512
      dyz     :     0.007334
      dx2y2   :     0.013996
      dxy     :     0.005406
      f0      :     0.000499  f :     0.004564
      f+1     :     0.000853
      f-1     :     0.000612
      f+2     :     0.001118
      f-2     :     0.000518
      f+3     :     0.000183
      f-3     :     0.000780

 34 H s       :     0.839040  s :     0.839040
      pz      :     0.004509  p :     0.019648
      px      :     0.004119
      py      :     0.011021

 35 H s       :     0.836922  s :     0.836922
      pz      :     0.004776  p :     0.019591
      px      :     0.010021
      py      :     0.004794

 36 H s       :     0.842565  s :     0.842565
      pz      :     0.008833  p :     0.020073
      px      :     0.006787
      py      :     0.004452

 37 C s       :     3.225436  s :     3.225436
      pz      :     0.985650  p :     3.061053
      px      :     0.999667
      py      :     1.075736
      dz2     :     0.011017  d :     0.051382
      dxz     :     0.009962
      dyz     :     0.010868
      dx2y2   :     0.010299
      dxy     :     0.009235
      f0      :     0.000490  f :     0.004563
      f+1     :     0.000867
      f-1     :     0.000582
      f+2     :     0.000728
      f-2     :     0.000928
      f+3     :     0.000189
      f-3     :     0.000779

 38 H s       :     0.837029  s :     0.837029
      pz      :     0.004768  p :     0.019592
      px      :     0.004175
      py      :     0.010649

 39 H s       :     0.842517  s :     0.842517
      pz      :     0.008875  p :     0.020071
      px      :     0.005092
      py      :     0.006104

 40 H s       :     0.839040  s :     0.839040
      pz      :     0.004544  p :     0.019650
      px      :     0.009542
      py      :     0.005564

 41 C s       :     3.225543  s :     3.225543
      pz      :     0.984407  p :     3.061345
      px      :     1.072325
      py      :     1.004613
      dz2     :     0.011114  d :     0.051369
      dxz     :     0.007828
      dyz     :     0.012971
      dx2y2   :     0.004850
      dxy     :     0.014607
      f0      :     0.000490  f :     0.004564
      f+1     :     0.000460
      f-1     :     0.001005
      f+2     :     0.000617
      f-2     :     0.001024
      f+3     :     0.000182
      f-3     :     0.000787

 42 H s       :     0.842373  s :     0.842373
      pz      :     0.008862  p :     0.020072
      px      :     0.004953
      py      :     0.006257

 43 H s       :     0.839125  s :     0.839125
      pz      :     0.004524  p :     0.019654
      px      :     0.008953
      py      :     0.006176

 44 H s       :     0.836961  s :     0.836961
      pz      :     0.004750  p :     0.019593
      px      :     0.008112
      py      :     0.006730



                     *******************************
                     * LOEWDIN POPULATION ANALYSIS *
                     *******************************

----------------------
LOEWDIN ATOMIC CHARGES
----------------------
   0 Pd:    0.164048
   1 Pd:    0.164298
   2 Pd:    0.164158
   3 O :    0.140152
   4 O :    0.137421
   5 O :    0.137404
   6 O :    0.139977
   7 O :    0.137492
   8 O :    0.139899
   9 O :    0.140130
  10 O :    0.137286
  11 O :    0.140087
  12 O :    0.137344
  13 O :    0.139910
  14 O :    0.137477
  15 C :   -0.531910
  16 C :   -0.531968
  17 C :   -0.531937
  18 C :   -0.531936
  19 C :   -0.531894
  20 C :   -0.531946
  21 C :   -0.241920
  22 H :    0.133452
  23 H :    0.142260
  24 H :    0.138673
  25 C :   -0.241949
  26 H :    0.138620
  27 H :    0.133417
  28 H :    0.142224
  29 C :   -0.241953
  30 H :    0.142237
  31 H :    0.138732
  32 H :    0.133422
  33 C :   -0.241887
  34 H :    0.138259
  35 H :    0.133647
  36 H :    0.142455
  37 C :   -0.241892
  38 H :    0.133596
  39 H :    0.142429
  40 H :    0.138319
  41 C :   -0.241941
  42 H :    0.142351
  43 H :    0.138379
  44 H :    0.133581

-------------------------------
LOEWDIN REDUCED ORBITAL CHARGES
-------------------------------
  0 Pds       :     2.283894  s :     2.283894
      pz      :     2.234825  p :     6.619790
      px      :     2.227586
      py      :     2.157380
      dz2     :     1.932715  d :     8.925629
      dxz     :     1.191281
      dyz     :     1.861584
      dx2y2   :     1.970575
      dxy     :     1.969474
      f0      :     0.000729  f :     0.006638
      f+1     :     0.002059
      f-1     :     0.000543
      f+2     :     0.001253
      f-2     :     0.001271
      f+3     :     0.000297
      f-3     :     0.000486

  1 Pds       :     2.284010  s :     2.284010
      pz      :     2.234828  p :     6.619517
      px      :     2.205548
      py      :     2.179140
      dz2     :     1.923663  d :     8.925533
      dxz     :     1.409606
      dyz     :     1.655214
      dx2y2   :     1.999503
      dxy     :     1.937548
      f0      :     0.000754  f :     0.006642
[...]
      px      :     0.031207
      py      :     0.014413

 32 H s       :     0.806966  s :     0.806966
      pz      :     0.013702  p :     0.059612
      px      :     0.020577
      py      :     0.025333

 33 C s       :     2.837432  s :     2.837432
      pz      :     1.036328  p :     3.150849
      px      :     1.060044
      py      :     1.054476
      dz2     :     0.047309  d :     0.229034
      dxz     :     0.061581
      dyz     :     0.039046
      dx2y2   :     0.058192
      dxy     :     0.022907
      f0      :     0.003530  f :     0.024572
      f+1     :     0.003971
      f-1     :     0.004289
      f+2     :     0.004047
      f-2     :     0.003992
      f+3     :     0.001439
      f-3     :     0.003303

 34 H s       :     0.802090  s :     0.802090
      pz      :     0.013594  p :     0.059650
      px      :     0.012201
      py      :     0.033855

 35 H s       :     0.806737  s :     0.806737
      pz      :     0.013388  p :     0.059616
      px      :     0.031309
      py      :     0.014919

 36 H s       :     0.797938  s :     0.797938
      pz      :     0.024872  p :     0.059607
      px      :     0.021864
      py      :     0.012870

 37 C s       :     2.837428  s :     2.837428
      pz      :     1.036964  p :     3.150832
      px      :     1.045812
      py      :     1.068057
      dz2     :     0.046865  d :     0.229061
      dxz     :     0.053768
      dyz     :     0.046745
      dx2y2   :     0.045414
      dxy     :     0.036268
      f0      :     0.003494  f :     0.024572
      f+1     :     0.004853
      f-1     :     0.003331
      f+2     :     0.003319
      f-2     :     0.004761
      f+3     :     0.001480
      f-3     :     0.003335

 38 H s       :     0.806787  s :     0.806787
      pz      :     0.013384  p :     0.059617
      px      :     0.012086
      py      :     0.034147

 39 H s       :     0.797962  s :     0.797962
      pz      :     0.025033  p :     0.059610
      px      :     0.015949
      py      :     0.018628

 40 H s       :     0.802034  s :     0.802034
      pz      :     0.013740  p :     0.059647
      px      :     0.028721
      py      :     0.017187

 41 C s       :     2.837406  s :     2.837406
      pz      :     1.036610  p :     3.150899
      px      :     1.065531
      py      :     1.048758
      dz2     :     0.047357  d :     0.229061
      dxz     :     0.035529
      dyz     :     0.064785
      dx2y2   :     0.018468
      dxy     :     0.062921
      f0      :     0.003485  f :     0.024575
      f+1     :     0.003477
      f-1     :     0.004772
      f+2     :     0.004705
      f-2     :     0.003356
      f+3     :     0.001432
      f-3     :     0.003349

 42 H s       :     0.798031  s :     0.798031
      pz      :     0.024988  p :     0.059619
      px      :     0.014183
      py      :     0.020447

 43 H s       :     0.801965  s :     0.801965
      pz      :     0.013654  p :     0.059656
      px      :     0.027833
      py      :     0.018169

 44 H s       :     0.806803  s :     0.806803
      pz      :     0.013332  p :     0.059616
      px      :     0.026199
      py      :     0.020085



                      *****************************
                      * MAYER POPULATION ANALYSIS *
                      *****************************

  NA   - Mulliken gross atomic population
  ZA   - Total nuclear charge
  QA   - Mulliken gross atomic charge
  VA   - Mayer's total valence
  BVA  - Mayer's bonded valence
  FA   - Mayer's free valence

  ATOM       NA         ZA         QA         VA         BVA        FA
  0 Pd    17.5161    18.0000     0.4839     2.5344     2.5344    -0.0000
  1 Pd    17.5153    18.0000     0.4847     2.5329     2.5329    -0.0000
  2 Pd    17.5160    18.0000     0.4840     2.5334     2.5334    -0.0000
  3 O      8.4109     8.0000    -0.4109     2.0702     2.0702    -0.0000
  4 O      8.4016     8.0000    -0.4016     2.0887     2.0887    -0.0000
  5 O      8.4007     8.0000    -0.4007     2.0867     2.0867    -0.0000
  6 O      8.4109     8.0000    -0.4109     2.0690     2.0690     0.0000
  7 O      8.4011     8.0000    -0.4011     2.0885     2.0885     0.0000
  8 O      8.4111     8.0000    -0.4111     2.0688     2.0688     0.0000
  9 O      8.4104     8.0000    -0.4104     2.0702     2.0702    -0.0000
 10 O      8.4011     8.0000    -0.4011     2.0874     2.0874    -0.0000
 11 O      8.4104     8.0000    -0.4104     2.0702     2.0702     0.0000
 12 O      8.4008     8.0000    -0.4008     2.0867     2.0867    -0.0000
 13 O      8.4106     8.0000    -0.4106     2.0688     2.0688    -0.0000
 14 O      8.4011     8.0000    -0.4011     2.0889     2.0889    -0.0000
 15 C      5.5094     6.0000     0.4906     3.9671     3.9671    -0.0000
 16 C      5.5104     6.0000     0.4896     3.9675     3.9675    -0.0000
 17 C      5.5096     6.0000     0.4904     3.9663     3.9663    -0.0000
 18 C      5.5093     6.0000     0.4907     3.9665     3.9665    -0.0000
 19 C      5.5095     6.0000     0.4905     3.9667     3.9667     0.0000
 20 C      5.5100     6.0000     0.4900     3.9675     3.9675     0.0000
 21 C      6.3429     6.0000    -0.3429     3.9099     3.9099     0.0000
 22 H      0.8566     1.0000     0.1434     0.9739     0.9739     0.0000
 23 H      0.8621     1.0000     0.1379     0.9722     0.9722     0.0000
 24 H      0.8592     1.0000     0.1408     0.9742     0.9742     0.0000
 25 C      6.3425     6.0000    -0.3425     3.9102     3.9102    -0.0000
 26 H      0.8591     1.0000     0.1409     0.9742     0.9742    -0.0000
 27 H      0.8567     1.0000     0.1433     0.9739     0.9739     0.0000
 28 H      0.8623     1.0000     0.1377     0.9721     0.9721    -0.0000
 29 C      6.3430     6.0000    -0.3430     3.9104     3.9104     0.0000
 30 H      0.8621     1.0000     0.1379     0.9721     0.9721    -0.0000
 31 H      0.8591     1.0000     0.1409     0.9742     0.9742    -0.0000
 32 H      0.8566     1.0000     0.1434     0.9738     0.9738     0.0000
 33 C      6.3426     6.0000    -0.3426     3.9101     3.9101    -0.0000
 34 H      0.8587     1.0000     0.1413     0.9743     0.9743    -0.0000
 35 H      0.8565     1.0000     0.1435     0.9736     0.9736    -0.0000
 36 H      0.8626     1.0000     0.1374     0.9722     0.9722    -0.0000
 37 C      6.3424     6.0000    -0.3424     3.9102     3.9102    -0.0000
 38 H      0.8566     1.0000     0.1434     0.9736     0.9736     0.0000
 39 H      0.8626     1.0000     0.1374     0.9722     0.9722     0.0000
 40 H      0.8587     1.0000     0.1413     0.9743     0.9743     0.0000
 41 C      6.3428     6.0000    -0.3428     3.9101     3.9101    -0.0000
 42 H      0.8624     1.0000     0.1376     0.9722     0.9722    -0.0000
 43 H      0.8588     1.0000     0.1412     0.9742     0.9742    -0.0000
 44 H      0.8566     1.0000     0.1434     0.9737     0.9737    -0.0000

  Mayer bond orders larger than 0.100000
B(  0-Pd,  1-Pd) :   0.1506 B(  0-Pd,  2-Pd) :   0.1511 B(  0-Pd,  3-O ) :   0.4701 
B(  0-Pd,  4-O ) :   0.4868 B(  0-Pd,  5-O ) :   0.4863 B(  0-Pd,  6-O ) :   0.4697 
B(  1-Pd,  2-Pd) :   0.1503 B(  1-Pd,  7-O ) :   0.4868 B(  1-Pd,  8-O ) :   0.4695 
B(  1-Pd,  9-O ) :   0.4703 B(  1-Pd, 10-O ) :   0.4860 B(  2-Pd, 11-O ) :   0.4703 
B(  2-Pd, 12-O ) :   0.4865 B(  2-Pd, 13-O ) :   0.4697 B(  2-Pd, 14-O ) :   0.4866 
B(  3-O , 17-C ) :   1.4481 B(  4-O , 18-C ) :   1.4579 B(  5-O , 16-C ) :   1.4576 
B(  6-O , 15-C ) :   1.4480 B(  7-O , 15-C ) :   1.4582 B(  8-O , 19-C ) :   1.4479 
B(  9-O , 16-C ) :   1.4484 B( 10-O , 20-C ) :   1.4579 B( 11-O , 20-C ) :   1.4485 
B( 12-O , 17-C ) :   1.4573 B( 13-O , 18-C ) :   1.4478 B( 14-O , 19-C ) :   1.4583 
B( 15-C , 21-C ) :   1.0110 B( 16-C , 37-C ) :   1.0114 B( 17-C , 33-C ) :   1.0115 
B( 18-C , 29-C ) :   1.0112 B( 19-C , 25-C ) :   1.0111 B( 20-C , 41-C ) :   1.0114 
B( 21-C , 22-H ) :   0.9701 B( 21-C , 23-H ) :   0.9446 B( 21-C , 24-H ) :   0.9552 
B( 25-C , 26-H ) :   0.9554 B( 25-C , 27-H ) :   0.9700 B( 25-C , 28-H ) :   0.9445 
B( 29-C , 30-H ) :   0.9447 B( 29-C , 31-H ) :   0.9552 B( 29-C , 32-H ) :   0.9700 
B( 33-C , 34-H ) :   0.9568 B( 33-C , 35-H ) :   0.9694 B( 33-C , 36-H ) :   0.9437 
B( 37-C , 38-H ) :   0.9694 B( 37-C , 39-H ) :   0.9438 B( 37-C , 40-H ) :   0.9566 
B( 41-C , 42-H ) :   0.9441 B( 41-C , 43-H ) :   0.9562 B( 41-C , 44-H ) :   0.9696 


-------
TIMINGS
-------

Total SCF time: 0 days 0 hours 5 min 22 sec 

Total time                  ....     322.003 sec
Sum of individual times     ....     319.901 sec  ( 99.3%)

SCF preparation             ....       1.914 sec  (  0.6%)
Fock matrix formation       ....     250.342 sec  ( 77.7%)
  Startup                   ....       5.951 sec  (  2.4% of F)
  Split-RI-J                ....      38.414 sec  ( 15.3% of F)
  Chain of spheres X        ....     144.776 sec  ( 57.8% of F)
  XC integration            ....      51.123 sec  ( 20.4% of F)
    XC Preparation          ....       0.000 sec  (  0.0% of XC)
    Basis function eval.    ....       6.117 sec  ( 12.0% of XC)
    Density eval.           ....      16.967 sec  ( 33.2% of XC)
    XC-Functional eval.     ....       1.032 sec  (  2.0% of XC)
    XC-Potential eval.      ....      12.467 sec  ( 24.4% of XC)
Diagonalization             ....       0.000 sec  (  0.0%)
Density matrix formation    ....      13.283 sec  (  4.1%)
Total Energy calculation    ....       4.966 sec  (  1.5%)
Population analysis         ....       1.226 sec  (  0.4%)
Orbital Transformation      ....       2.293 sec  (  0.7%)
Orbital Orthonormalization  ....       0.000 sec  (  0.0%)
DIIS solution               ....      40.614 sec  ( 12.6%)
SOSCF solution              ....       5.264 sec  (  1.6%)
Finished LeanSCF after 322.4 sec

Maximum memory used throughout the entire LEANSCF-calculation: 152.3 MB


-------------------------------------------------------------------------------
                          DFT DISPERSION CORRECTION                            
                                                                               
                              DFTD3 V3.1  Rev 1                                
                          USING Becke-Johnson damping                          
-------------------------------------------------------------------------------
The TPSSH functional is recognized
Active option DFTDOPT                   ...         4   

molecular C6(AA) [au] = 30115.323007 


            DFT-D V3
 parameters
 s6 scaling factor         :     1.0000 
 a1 scaling factor         :     0.4529 
 s8 scaling factor         :     2.2382 
 a2 scaling factor         :     4.6550 
 ad hoc parameters k1-k3   :    16.0000     1.3333    -4.0000 

 Edisp/kcal,au: -49.879380655666  -0.079487844242 
 E6   /kcal   : -21.603812361 
 E8   /kcal   : -28.275568295 
 % E8         :  56.687889711 

-------------------------   ----------------
Dispersion correction           -0.079487844
-------------------------   ----------------


-------------------------   --------------------
FINAL SINGLE POINT ENERGY     -1755.399633183678
-------------------------   --------------------



           ************************************************************
           *        Program running with 16 parallel MPI-processes    *
           *              working on a common directory               *
           ************************************************************

------------------------------------------------------------------------------
                              ORCA PROPERTY CALCULATIONS
------------------------------------------------------------------------------

GBWName                                 ... CS_PdOAc_001_sp_01.gbw
Number of atoms                         ...     45
Number of basis functions               ...    972
Max core memory                         ...   3500 MB

Electric properties:
Dipole moment                           ... YES
Quadrupole moment                       ...  NO
Static polarizability (Dipole/Dipole)   ...  NO
Static polarizability (Dipole/Quad.)    ...  NO
Static polarizability (Quad./Quad.)     ...  NO
Static polarizability (Velocity)        ...  NO

Atomic electric properties:
Dipole moment                           ...  NO
Quadrupole moment                       ...  NO
Static polarizability                   ...  NO

Choice of electric origin               ... Center of mass
Position of electric origin             ...    -0.001678     0.001913    -0.001887

General magnetic properties:
Magnetizability                         ...  NO

EPR properties:
g-Tensor (aka g-matrix)                 ...  NO
Zero-Field splitting spin-orbit         ...  NO
Zero-field splitting spin-spin          ...  NO
Hyperfine couplings                     ...  NO (   0 nuclei)
Quadrupole couplings                    ...  NO (   0 nuclei)
Contact density                         ...  NO (   0 nuclei)

NMR properties:
Chemical shifts                         ...  NO (   0 nuclei)
Spin-rotation constants                 ...  NO (   0 nuclei)
Spin-spin couplings                     ...  NO (   0 nuclei,    0 pairs)

Choice of magnetic origin               ... GIAO
Position of magnetic origin             ...     0.000000     0.000000     0.000000

Properties with geometric perturbations:
SCF Hessian                             ...  NO
IR spectrum                             ...  NO
VCD spectrum                            ...  NO
X-ray spectroscopy properties:
SCF XES/XAS/RIXS spectra                ...  NO


-------------
DIPOLE MOMENT
-------------

Method             : SCF
Type of density    : Electron Density
Multiplicity       :   1
Irrep              :   0
Energy             : -1755.3201453394358396 Eh
Relativity type    : 
Basis              : AO
                                X                 Y                 Z
Electronic contribution:     -0.000025895       0.071562898      -0.149940485
Nuclear contribution   :      0.000385917      -0.073192196       0.155278721
                        -----------------------------------------
Total Dipole Moment    :      0.000360022      -0.001629298       0.005338236
                        -----------------------------------------
Magnitude (a.u.)       :      0.005592941
Magnitude (Debye)      :      0.014216127



--------------------
Rotational spectrum 
--------------------
 
Rotational constants in cm-1:             0.004875             0.004873             0.004319 
Rotational constants in MHz :           146.162820           146.086298           129.494342 

Dipole components along the rotational axes: 
x,y,z [a.u.] :    -0.001491    -0.000786     0.005333 
x,y,z [Debye]:    -0.003791    -0.001999     0.013555 

 

Dipole moment calculation done in   0.3 sec 

Maximum memory used throughout the entire PROP-calculation: 85.1 MB

--------------------------------
SUGGESTED CITATIONS FOR THIS RUN
--------------------------------

Below you find a list of papers that are relevant to this ORCA run
We neither can nor want to force you to cite these papers, but we appreciate if you do
You receive ORCA, which is the product of decades of hard work by many enthusiastic individuals, for free
The only thing we kindly ask in return is that you cite our papers,
We deeply appreciate it, if you show your appreciation for ORCA by not just citing the generic ORCA reference.

Please note that relegating all ORCA citations to the supporting information does *not* help us.
SI sections are not indexed - citations you put there will not count into any citation statistics
But we need these citations in order to attract the funding resources that allow us to do what we are doing

Therefore, if you are a happy ORCA user, please consider citing a few of the papers listed below in the main body of your paper

In addition to the list printed below, the program has created the file CS_PdOAc_001_sp_01.bibtex that contains the list in bibtex format
You can import this file easily into all common literature databanks and citation aid programs


List of essential papers. We consider these as the minimum necessary citations

  1. Neese,F.
     Software update: the ORCA program system, version 5.0
     WIRES Comput. Molec. Sci., 2022 12(1)e1606
     doi.org/10.1002/wcms.1606

List of papers to cite with high priority. The work reported in these papers was absolutely
necessary for this run to complete.
Our perspective: the developers of density functionals and basis sets usually get cited in chemistry papers
Good! But without the algorithms to do something with them, the functionals or basis sets would not do anything.
Hence, in our opinion, the algorithm design and method developments papers are equally worthy of getting cited

  1. Neese,F.
     An improvement of the resolution of the identity approximation for the formation of the Coulomb matrix
     J. Comp. Chem., 2003 24(14)1740-1747
     doi.org/10.1002/jcc.10318
  2. Neese,F.; Wennmohs,F.; Hansen,A.; Becker,U.
     Efficient, approximate and parallel Hartree-Fock and hybrid DFT calculations. A 'chain-of-spheres' algorithm for the Hartree-Fock exchange
     Chem. Phys., 2009 356(1-3)98-109
     doi.org/10.1016/j.chemphys.2008.10.036
  3. Helmich-Paris,B.; de Souza,B.; Neese,F.; Izsák,R.
     An improved chain of spheres for exchange algorithm
     J. Chem. Phys., 2021 155 104109
     doi.org/doi: 10.1063/5.0058766.
  4. Neese,F.
     The SHARK Integral Generation and Digestion System
     J. Comp. Chem., 2022  1-16
     doi.org/10.1002/jcc.26942
  5. Grimme,S.; Antony,J.; Ehrlich,S.; Krieg,H.
     A consistent and accurate ab initio parametrization of density functional dispersion correction (DFT-D) for the 94 elements H-Pu
     J. Chem. Phys., 2010 132 154104-XXXX
     doi.org/10.1063/1.3382344
  6. Grimme,S.; Ehrlich,S.; Goerigk,L.
     Effect of the damping function in dispersion corrected density functional theory
     J. Comput. Chem., 2011 32(7)1456-1465
     doi.org/10.1002/jcc.21759

List of suggested additional citations. These are papers that are important in the 'surrounding' of 
of this run, or papers that preceded the highly important papers. If you like your results we are grateful for a citation.

  1. Izsak,R.; Neese,F.
     An overlap fitted chain of spheres exchange method
     J. Chem. Phys., 2011 135 144105
     doi.org/10.1063/1.3646921
  2. Izsak,R.; Hansen,A.; Neese,F.
     The resolution of identity and chain of spheres approximations for the LPNO-CCSD singles Fock term
     Molec. Phys., 2012 110 2413-2417
     doi.org/10.1080/00268976.2012.687466
  3. Neese,F.
     The ORCA program system
     WIRES Comput. Molec. Sci., 2012 2(1)73-78
     doi.org/10.1002/wcms.81
  4. Izsak,R.; Neese,F.; Klopper,W.
     Robust fitting techniques in the chain of spheres approximation to the Fock exchange: The role of the complementary space
     J. Chem. Phys., 2013 139 
     doi.org/10.1063/1.4819264
  5. Neese,F.
     Software update: the ORCA program system, version 4.0
     WIRES Comput. Molec. Sci., 2018 8(1)1-6
     doi.org/10.1002/wcms.1327
  6. Neese,F.; Wennmohs,F.; Becker,U.; Riplinger,C.
     The ORCA quantum chemistry program package
     J. Chem. Phys., 2020 152 Art. No. L224108
     doi.org/10.1063/5.0004608

List of optional additional citations

  1. Neese,F.
     Approximate second-order SCF convergence for spin unrestricted wavefunctions
     Chem. Phys. Lett., 2000 325(1-3)93-98
     doi.org/10.1016/s0009-2614(00)00662-x

Timings for individual modules:

Sum of individual times          ...      356.624 sec (=   5.944 min)
Startup calculation              ...       13.516 sec (=   0.225 min)   3.8 %
SCF iterations                   ...      340.612 sec (=   5.677 min)  95.5 %
Property calculations            ...        2.496 sec (=   0.042 min)   0.7 %
                             ****ORCA TERMINATED NORMALLY****
TOTAL RUN TIME: 0 days 0 hours 6 minutes 2 seconds 257 msec
