
                                 *****************
                                 * O   R   C   A *
                                 *****************

                                            #,                                       
                                            ###                                      
                                            ####                                     
                                            #####                                    
                                            ######                                   
                                           ########,                                 
                                     ,,################,,,,,                         
                               ,,#################################,,                 
                          ,,##########################################,,             
                       ,#########################################, ''#####,          
                    ,#############################################,,   '####,        
                  ,##################################################,,,,####,       
                ,###########''''           ''''###############################       
              ,#####''   ,,,,##########,,,,          '''####'''          '####       
            ,##' ,,,,###########################,,,                        '##       
           ' ,,###''''                  '''############,,,                           
         ,,##''                                '''############,,,,        ,,,,,,###''
      ,#''                                            '''#######################'''  
     '                                                          ''''####''''         
             ,#######,   #######,   ,#######,      ##                                
            ,#'     '#,  ##    ##  ,#'     '#,    #''#        ,####,   ,####,        
            ##       ##  ##   ,#'  ##            #'  '#       #'       #'  '#        
            ##       ##  #######   ##           ,######,      #####,   #    #        
            '#,     ,#'  ##    ##  '#,     ,#' ,#      #,     #,   #   #,  ,#        
             '#######'   ##     ##  '#######'  #'      '#     '####' # '####'        



                #########################################################
                #                        -***-                          #
                #          Department of theory and spectroscopy        #
                #                                                       #
                #                      Frank Neese                      #
                #                                                       #
                #     Directorship, Architecture, Infrastructure        #
                #                    SHARK, DRIVERS                     #
                #        Core code/Algorithms in most modules           #
                #                                                       #
                #        Max Planck Institute fuer Kohlenforschung      #
                #                Kaiser Wilhelm Platz 1                 #
                #                 D-45470 Muelheim/Ruhr                 #
                #                      Germany                          #
                #                                                       #
                #                  All rights reserved                  #
                #                        -***-                          #
                #########################################################


                         Program Version 6.0.0  -   RELEASE  -


 With contributions from (in alphabetic order):
   Daniel Aravena         : Magnetic Suceptibility
   Michael Atanasov       : Ab Initio Ligand Field Theory (pilot matlab implementation)
   Alexander A. Auer      : GIAO ZORA, VPT2 properties, NMR spectrum
   Ute Becker             : All parallelization in ORCA, NUMFREQ, NUMCALC
   Giovanni Bistoni       : ED, misc. LED, open-shell LED, HFLD
   Martin Brehm           : Molecular dynamics
   Dmytro Bykov           : pre 5.0 version of the SCF Hessian
   Marcos Casanova-Páez   : Triplet and SCS-CIS(D). UHF-(DLPNO)-IP/EA/STEOM-CCSD. UHF-CVS-IP/STEOM-CCSD
   Vijay G. Chilkuri      : MRCI spin determinant printing, contributions to CSF-ICE
   Pauline Colinet        : FMM embedding
   Dipayan Datta          : RHF DLPNO-CCSD density
   Achintya Kumar Dutta   : EOM-CC, STEOM-CC
   Nicolas Foglia         : Exact transition moments, OPA infrastructure, MCD improvements
   Dmitry Ganyushin       : Spin-Orbit,Spin-Spin,Magnetic field MRCI
   Miquel Garcia          : C-PCM and meta-GGA Hessian, CCSD/C-PCM, Gaussian charge scheme
   Tiago L. C. Gouveia    : GS-ROHF, GS-ROCIS
   Yang Guo               : DLPNO-NEVPT2, F12-NEVPT2, CIM, IAO-localization
   Andreas Hansen         : Spin unrestricted coupled pair/coupled cluster methods
   Ingolf Harden          : AUTO-CI MPn and infrastructure 
   Benjamin Helmich-Paris : MC-RPA, TRAH-(SCF,CASSCF), AVAS, COSX integrals, SCF dyn. polar.
   Lee Huntington         : MR-EOM, pCC
   Robert Izsak           : Overlap fitted RIJCOSX, COSX-SCS-MP3, EOM
   Riya Kayal             : Wick's Theorem for AUTO-CI, AUTO-CI UHF-CCSDT
   Emily Kempfer          : AUTO-CI, RHF CISDT and CCSDT
   Christian Kollmar      : KDIIS, OOCD, Brueckner-CCSD(T), CCSD density, CASPT2, CASPT2-K, improved NEVPT2
   Axel Koslowski         : Symmetry handling
   Simone Kossmann        : Meta GGA functionals, TD-DFT gradient, OOMP2, (MP2 Hessian; deprecated post 5.0)
   Lucas Lang             : DCDCAS
   Marvin Lechner         : AUTO-CI (C++ implementation), FIC-MRCC
   Spencer Leger          : CASSCF response
   Dagmar Lenk            : GEPOL surface, SMD, ORCA-2-JSON
   Dimitrios Liakos       : Extrapolation schemes; Compound Job, initial MDCI parallelization
   Dimitrios Manganas     : Further ROCIS development; embedding schemes. LFT, Crystal Embedding
   Dimitrios Pantazis     : SARC Basis sets
   Anastasios Papadopoulos: AUTO-CI, single reference methods and gradients
   Taras Petrenko         : pre 6.0 DFT Hessian and TD-DFT gradient, (ASA, deprecated), ECA, 1-Electron XAS/XES, NRVS
   Peter Pinski           : DLPNO-MP2, DLPNO-MP2 Gradient
   Christoph Reimann      : Effective Core Potentials
   Marius Retegan         : Local ZFS, SOC
   Christoph Riplinger    : Optimizer, TS searches, QM/MM, DLPNO-CCSD(T), (RO)-DLPNO pert. Triples
   Michael Roemelt        : Original ROCIS implementation
   Masaaki Saitow         : Open-shell DLPNO-CCSD energy and density
   Barbara Sandhoefer     : DKH picture change effects
   Kantharuban Sivalingam : CASSCF convergence/infrastructure, NEVPT2 and variants, FIC-MRCI
   Bernardo de Souza      : ESD, SOC TD-DFT
   Georgi Stoychev        : AutoAux, RI-MP2 NMR, DLPNO-MP2 response, X2C
   Van Anh Tran           : RI-MP2 g-tensors
   Willem Van den Heuvel  : Paramagnetic NMR
   Zikuan Wang            : NOTCH, Electric field optimization 
   Frank Wennmohs         : Technical directorship and infrastructure
   Hang Xu                : AUTO-CI-Response properties 


 We gratefully acknowledge several colleagues who have allowed us to
 interface, adapt or use parts of their codes:
   Stefan Grimme, W. Hujo, H. Kruse, P. Pracht,  : VdW corrections, initial TS optimization,
                  C. Bannwarth, S. Ehlert,         DFT functionals, gCP, sTDA/sTD-DF
                  L. Wittmann, M. Mueller
   Ed Valeev, F. Pavosevic, A. Kumar             : LibInt (2-el integral package), F12 methods
   Garnet Chan, S. Sharma, J. Yang, R. Olivares  : DMRG
   Ulf Ekstrom                                   : XCFun DFT Library
   Mihaly Kallay                                 : mrcc  (arbitrary order and MRCC methods)
   Frank Weinhold                                : gennbo (NPA and NBO analysis)
   Simon Mueller                                 : openCOSMO-RS
   Christopher J. Cramer and Donald G. Truhlar   : smd solvation model
   Lars Goerigk                                  : TD-DFT with DH, B97 family of functionals
   V. Asgeirsson, H. Jonsson                     : NEB implementation
   FAccTs GmbH                                   : IRC, NEB, NEB-TS, DLPNO-Multilevel, CI-OPT
                                                   MM, QMMM, 2- and 3-layer-ONIOM, Crystal-QMMM,
                                                   LR-CPCM, SF, NACMEs, symmetry and pop. for TD-DFT,
                                                   nearIR, NL-DFT gradient (VV10), updates on ESD,
                                                   ML-optimized integration grids, MBIS, APM,
                                                   GOAT, DOCKER, SOLVATOR, interface openCOSMO-RS
   S Lehtola, MJT Oliveira, MAL Marques          : LibXC Library
   Liviu Ungur et al                             : ANISO software


 Your calculation uses the libint2 library for the computation of 2-el integrals
 For citations please refer to: http://libint.valeyev.net

 Your ORCA version has been built with support for libXC version: 6.2.2
 For citations please refer to: https://libxc.gitlab.io

 This ORCA versions uses:
   CBLAS   interface :  Fast vector & matrix operations
   LAPACKE interface :  Fast linear algebra routines
   SCALAPACK package :  Parallel linear algebra routines
   Shared memory     :  Shared parallel matrices
   BLAS/LAPACK       :  OpenBLAS 0.3.27  USE64BITINT DYNAMIC_ARCH NO_AFFINITY Sandybridge SINGLE_THREADED
        Core in use  :  Sandybridge
   Copyright (c) 2011-2014, The OpenBLAS Project


NOTE: MaxCore=3500 MB was set to SCF,MP2,MDCI,CIPSI,MRCI and CIS
      => If you want to overwrite this, your respective input block should be placed after the MaxCore statement
Your calculation utilizes the atom-pairwise dispersion correction
with the Becke-Johnson damping scheme (D3BJ)


Warning: RI is on but no J-basis has been assigned. Assigning Def2/J (nothing to worry about!)
================================================================================

cite the ECPs for Pd [Def2-ECP] as follows:
Ce-Yb(ecp-28): M. Dolg, H. Stoll, H.Preuss, J. Chem. Phys., 1989, 90, 1730-1734.
Y-Cd(ecp-28), Hf-Hg(ecp-46): D. Andrae,U. Haeussermann, M. Dolg, H. Stoll, H. Preuss, Theor. Chim. Acta, 1990, 77, 123-141.
In-Sb(ecp-28), Tl-Bi(ecp-46): B. Metz, H. Stoll, M. Dolg, J. Chem. Phys., 2000, 113, 2563-2569.
Te-Xe(ecp-28), Po-Rn(ecp-46): K. A. Peterson, D. Figgen, E. Goll, H. Stoll, M. Dolg, J. Chem. Phys., 2003, 119, 11113-11123.
Rb(ecp-28), Cs(ecp-46): T. Leininger, A. Nicklass, W. Kuechle, H. Stoll, M. Dolg, A. Bergner, Chem. Phys. Lett., 1996, 255, 274-280.
Sr(ecp-28), Ba(ecp-46): M. Kaupp, P. V. Schleyer, H. Stoll and H. Preuss, J. Chem. Phys., 1991, 94, 1360-1366.
La(ecp-46): M. Dolg, H. Stoll, A. Savin, H. Preuss, Theor. Chim. Acta, 1989, 75, 173-194.
Lu(ecp-28): X. Cao, M. Dolg, J. Chem. Phys., 2001, 115, 7348-7355.

ECP parameters for Pd [Def2-ECP] have been obtained from:
TURBOMOLE (7.0.2)

----- Orbital basis set information -----
Your calculation utilizes the basis: def2-TZVP
   F. Weigend and R. Ahlrichs, Phys. Chem. Chem. Phys. 7, 3297 (2005).

----- AuxJ basis set information -----
Your calculation utilizes the auxiliary basis: def2/J
   F. Weigend, Phys. Chem. Chem. Phys. 8, 1057 (2006).

================================================================================
                                        WARNINGS
                       Please study these warnings very carefully!
================================================================================


================================================================================
                                       INPUT FILE
================================================================================
NAME = CS_PdOAc_002_sp_01.inp
|  1> !TPSSh def2-TZVP d3 TightSCF SlowConv RIJCOSX defgrid2
|  2> 
|  3> %pal
|  4> nprocs 16
|  5> end
|  6> 
|  7> %scf
|  8> MaxIter 1500
|  9> end
| 10> 
| 11> %maxcore 3500
| 12> 
| 13>  
| 14> 
| 15> * xyz 0 1
| 16>   Pd         -0.96155713297856      1.46825119028625     -0.13527296373080
| 17>   O          -0.74187794558493      1.18287061435267     -2.12305578859050
| 18>   O           1.45546578834347      0.69101813442753     -2.20351959336500
| 19>   C           0.32624937011772      0.89115554296676     -2.72156618361241
| 20>   C           0.23372492740678      0.73087975790385     -4.21510820689113
| 21>   H          -0.53878430173106      1.39938046890886     -4.62254668779545
| 22>   H           1.20976413262595      0.92400951017976     -4.68302116244606
| 23>   H          -0.06043777423073     -0.31040774281063     -4.43506637654638
| 24>   O          -1.04289807496586      3.51854309351393      0.04622241118279
| 25>   C          -1.22564132209613      3.39522180705469      1.29566373876984
| 26>   O          -1.28346245725946      2.21507530405670      1.75725333355886
| 27>   C          -1.32661357978533      4.58565843010107      2.18598649394381
| 28>   H          -1.82275121140900      5.41352372082763      1.65685931033598
| 29>   H          -0.30715170003296      4.91416286869020      2.45516990838206
| 30>   H          -1.86789694665148      4.32754366295921      3.10826985324034
| 31>   O           2.88275106171368      2.60996093426844     -0.06561645756303
| 32>   Pd          1.90586178931800      0.80204731962409     -0.23833293090210
| 33>   O           2.63734450670721      1.28153522323390      1.62546472316981
| 34>   C           3.06930521704641      2.38367256125759      1.16829667472386
| 35>   H           4.35993183781436      4.06235231225963      1.45847733953824
| 36>   H           2.95066748051037      3.97820123798582      2.56112518371947
| 37>   C           3.73042074007027      3.38378175287754      2.05293935602851
| 38>   H           4.32434754864880      2.87170678305794      2.82542533455215
| 39>   O           1.13237209121254     -1.04293754665840      0.02944012181449
| 40>   C          -0.08625837794638     -1.32847649317569      0.16225550773202
| 41>   O          -1.06005617226553     -0.53236468415262      0.12562364650755
| 42>   C          -0.41560269543157     -2.78465938740288      0.35152232534782
| 43>   H          -0.53496223405774     -3.24607369007396     -0.64440725084470
| 44>   H           0.40643468166696     -3.29693994446352      0.87239776872500
| 45>   H          -1.36122075577586     -2.89508396005644      0.90158258001495
| 46> *
| 47> 
| 48>                          ****END OF INPUT****
================================================================================

                       ****************************
                       * Single Point Calculation *
                       ****************************

---------------------------------
CARTESIAN COORDINATES (ANGSTROEM)
---------------------------------
  Pd    -0.961557    1.468251   -0.135273
  O     -0.741878    1.182871   -2.123056
  O      1.455466    0.691018   -2.203520
  C      0.326249    0.891156   -2.721566
  C      0.233725    0.730880   -4.215108
  H     -0.538784    1.399380   -4.622547
  H      1.209764    0.924010   -4.683021
  H     -0.060438   -0.310408   -4.435066
  O     -1.042898    3.518543    0.046222
  C     -1.225641    3.395222    1.295664
  O     -1.283462    2.215075    1.757253
  C     -1.326614    4.585658    2.185986
  H     -1.822751    5.413524    1.656859
  H     -0.307152    4.914163    2.455170
  H     -1.867897    4.327544    3.108270
  O      2.882751    2.609961   -0.065616
  Pd     1.905862    0.802047   -0.238333
  O      2.637345    1.281535    1.625465
  C      3.069305    2.383673    1.168297
  H      4.359932    4.062352    1.458477
  H      2.950667    3.978201    2.561125
  C      3.730421    3.383782    2.052939
  H      4.324348    2.871707    2.825425
  O      1.132372   -1.042938    0.029440
  C     -0.086258   -1.328476    0.162256
  O     -1.060056   -0.532365    0.125624
  C     -0.415603   -2.784659    0.351522
  H     -0.534962   -3.246074   -0.644407
  H      0.406435   -3.296940    0.872398
  H     -1.361221   -2.895084    0.901583

----------------------------
CARTESIAN COORDINATES (A.U.)
----------------------------
  NO LB      ZA    FRAG     MASS         X           Y           Z
   0 Pd   18.0000*   0   106.400   -1.817080    2.774593   -0.255629
   1 O     8.0000    0    15.999   -1.401946    2.235302   -4.011994
   2 O     8.0000    0    15.999    2.750432    1.305835   -4.164049
   3 C     6.0000    0    12.011    0.616522    1.684040   -5.143015
   4 C     6.0000    0    12.011    0.441676    1.381163   -7.965400
   5 H     1.0000    0     1.008   -1.018155    2.644446   -8.735347
   6 H     1.0000    0     1.008    2.286123    1.746125   -8.849627
   7 H     1.0000    0     1.008   -0.114211   -0.586586   -8.381061
   8 O     8.0000    0    15.999   -1.970792    6.649083    0.087348
   9 C     6.0000    0    12.011   -2.316126    6.416039    2.448450
  10 O     8.0000    0    15.999   -2.425393    4.185886    3.320728
  11 C     6.0000    0    12.011   -2.506936    8.665639    4.130916
  12 H     1.0000    0     1.008   -3.444501   10.230077    3.131010
  13 H     1.0000    0     1.008   -0.580433    9.286422    4.639599
  14 H     1.0000    0     1.008   -3.529814    8.177872    5.873779
  15 O     8.0000    0    15.999    5.447610    4.932111   -0.123997
  16 Pd   18.0000*   0   106.400    3.601557    1.515650   -0.450384
  17 O     8.0000    0    15.999    4.983859    2.421751    3.071683
  18 C     6.0000    0    12.011    5.800146    4.504488    2.207761
  19 H     1.0000    0     1.008    8.239077    7.676733    2.756123
  20 H     1.0000    0     1.008    5.575953    7.517711    4.839825
  21 C     6.0000    0    12.011    7.049474    6.394421    3.879493
  22 H     1.0000    0     1.008    8.171833    5.426739    5.339280
  23 O     8.0000    0    15.999    2.139873   -1.970866    0.055634
  24 C     6.0000    0    12.011   -0.163005   -2.510457    0.306618
  25 O     8.0000    0    15.999   -2.003216   -1.006023    0.237394
  26 C     6.0000    0    12.011   -0.785375   -5.262244    0.664281
  27 H     1.0000    0     1.008   -1.010932   -6.134190   -1.217753
  28 H     1.0000    0     1.008    0.768050   -6.230314    1.648593
  29 H     1.0000    0     1.008   -2.572334   -5.470916    1.703744
* core charge reduced due to ECP

--------------------------------
INTERNAL COORDINATES (ANGSTROEM)
--------------------------------
 Pd     0   0   0     0.000000000000     0.00000000     0.00000000
 O      1   0   0     2.020143949648     0.00000000     0.00000000
 O      2   1   0     2.253156179878    99.90575967     0.00000000
 C      3   2   1     1.258394600733    26.47417421   181.39900009
 C      4   3   2     1.504964077670   116.53721311   181.66221405
 H      5   4   3     1.099849910415   110.24826859   210.28312924
 H      5   4   3     1.099497232973   110.42965520   333.36535048
 H      5   4   3     1.104170707172   108.33102477    92.06299309
 O      1   2   3     2.059915971199   103.39118262   103.21589233
 C      9   1   2     1.268742237473    89.75419203   177.58319434
 O     10   9   1     1.268524341992   117.08659981   358.97820937
 C     10   9   1     1.489969583144   121.36953276   177.18831355
 H     12  10   9     1.100676639861   110.13460682    34.48362872
 H     12  10   9     1.104390058380   108.70791665   276.30431358
 H     12  10   9     1.100098864238   110.29434111   157.28951040
 O      3   2   1     3.207820839560   106.23224488   321.47965385
 Pd     3   2   1     2.019193565754    99.83272386     0.68716380
 O     17   3   2     2.058814540184   166.68554388   244.65286762
 C     16   3   2     1.268286441882   127.38136666    88.34338742
 H     19  16   3     2.137261705756    94.63333081   170.00026517
 H     20  19  16     1.791351361500    64.63454679   125.74427216
 C     20  19  16     1.100057869065    40.82665050   160.10770694
 H     22  20  19     1.100774461768   110.94201592   122.29003547
 O     17   3   2     2.018404785381    89.62042276    79.60417312
 C     24  17   3     1.258663035557   126.32723548   278.69668038
 O     25  24  17     1.258339401729   127.06088536     1.68512487
 C     25  24  17     1.504911369201   116.40223126   180.05471664
 H     27  25  24     1.104094913903   108.33627674   272.39969278
 H     27  25  24     1.099767269018   110.28629346    30.72398246
 H     27  25  24     1.099524163472   110.38385774   153.80275068

---------------------------
INTERNAL COORDINATES (A.U.)
---------------------------
 Pd     0   0   0     0.000000000000     0.00000000     0.00000000
 O      1   0   0     3.817518815934     0.00000000     0.00000000
 O      2   1   0     4.257848116921    99.90575967     0.00000000
 C      3   2   1     2.378021163791    26.47417421   181.39900009
 C      4   3   2     2.843969948185   116.53721311   181.66221405
 H      5   4   3     2.078415119101   110.24826859   210.28312924
 H      5   4   3     2.077748655323   110.42965520   333.36535048
 H      5   4   3     2.086580241653   108.33102477    92.06299309
 O      1   2   3     3.892677044456   103.39118262   103.21589233
 C      9   1   2     2.397575363363    89.75419203   177.58319434
 O     10   9   1     2.397163600578   117.08659981   358.97820937
 C     10   9   1     2.815634460014   121.36953276   177.18831355
 H     12  10   9     2.079977411342   110.13460682    34.48362872
 H     12  10   9     2.086994755364   108.70791665   276.30431358
 H     12  10   9     2.078885573648   110.29434111   157.28951040
 O      3   2   1     6.061902873453   106.23224488   321.47965385
 Pd     3   2   1     3.815722850650    99.83272386     0.68716380
 O     17   3   2     3.890595641482   166.68554388   244.65286762
 C     16   3   2     2.396714034523   127.38136666    88.34338742
 H     19  16   3     4.038839300396    94.63333081   170.00026517
 H     20  19  16     3.385163482861    64.63454679   125.74427216
 C     20  19  16     2.078808103999    40.82665050   160.10770694
 H     22  20  19     2.080162267955   110.94201592   122.29003547
 O     17   3   2     3.814232271766    89.62042276    79.60417312
 C     24  17   3     2.378528432092   126.32723548   278.69668038
 O     25  24  17     2.377916852790   127.06088536     1.68512487
 C     25  24  17     2.843870343614   116.40223126   180.05471664
 H     27  25  24     2.086437013131   108.33627674   272.39969278
 H     27  25  24     2.078258949494   110.28629346    30.72398246
 H     27  25  24     2.077799546592   110.38385774   153.80275068

---------------------
BASIS SET INFORMATION
---------------------
There are 4 groups of distinct atoms

 Group   1 Type Pd  : 7s7p6d1f contracted to 6s4p3d1f pattern {211111/4111/411/1}
 Group   2 Type O   : 11s6p2d1f contracted to 5s3p2d1f pattern {62111/411/11/1}
 Group   3 Type C   : 11s6p2d1f contracted to 5s3p2d1f pattern {62111/411/11/1}
 Group   4 Type H   : 5s1p contracted to 3s1p pattern {311/1}

Atom   0Pd   basis set group =>   1
Atom   1O    basis set group =>   2
Atom   2O    basis set group =>   2
Atom   3C    basis set group =>   3
Atom   4C    basis set group =>   3
Atom   5H    basis set group =>   4
Atom   6H    basis set group =>   4
Atom   7H    basis set group =>   4
Atom   8O    basis set group =>   2
Atom   9C    basis set group =>   3
Atom  10O    basis set group =>   2
Atom  11C    basis set group =>   3
Atom  12H    basis set group =>   4
Atom  13H    basis set group =>   4
Atom  14H    basis set group =>   4
Atom  15O    basis set group =>   2
Atom  16Pd   basis set group =>   1
Atom  17O    basis set group =>   2
Atom  18C    basis set group =>   3
Atom  19H    basis set group =>   4
Atom  20H    basis set group =>   4
Atom  21C    basis set group =>   3
Atom  22H    basis set group =>   4
Atom  23O    basis set group =>   2
Atom  24C    basis set group =>   3
Atom  25O    basis set group =>   2
Atom  26C    basis set group =>   3
Atom  27H    basis set group =>   4
Atom  28H    basis set group =>   4
Atom  29H    basis set group =>   4
---------------------------------
AUXILIARY/J BASIS SET INFORMATION
---------------------------------
There are 4 groups of distinct atoms

 Group   1 Type Pd  : 11s5p5d3f3g contracted to 8s5p5d2f3g pattern {41111111/11111/11111/21/111}
 Group   2 Type O   : 12s5p4d2f1g contracted to 6s4p3d1f1g pattern {711111/2111/211/2/1}
 Group   3 Type C   : 12s5p4d2f1g contracted to 6s4p3d1f1g pattern {711111/2111/211/2/1}
 Group   4 Type H   : 5s2p1d contracted to 3s1p1d pattern {311/2/1}

Atom   0Pd   basis set group =>   1
Atom   1O    basis set group =>   2
Atom   2O    basis set group =>   2
Atom   3C    basis set group =>   3
Atom   4C    basis set group =>   3
Atom   5H    basis set group =>   4
Atom   6H    basis set group =>   4
Atom   7H    basis set group =>   4
Atom   8O    basis set group =>   2
Atom   9C    basis set group =>   3
Atom  10O    basis set group =>   2
Atom  11C    basis set group =>   3
Atom  12H    basis set group =>   4
Atom  13H    basis set group =>   4
Atom  14H    basis set group =>   4
Atom  15O    basis set group =>   2
Atom  16Pd   basis set group =>   1
Atom  17O    basis set group =>   2
Atom  18C    basis set group =>   3
Atom  19H    basis set group =>   4
Atom  20H    basis set group =>   4
Atom  21C    basis set group =>   3
Atom  22H    basis set group =>   4
Atom  23O    basis set group =>   2
Atom  24C    basis set group =>   3
Atom  25O    basis set group =>   2
Atom  26C    basis set group =>   3
Atom  27H    basis set group =>   4
Atom  28H    basis set group =>   4
Atom  29H    basis set group =>   4
-------------------------
ECP PARAMETER INFORMATION
-------------------------

 Group 1, Type Pd ECP Def2-ECP (replacing 28 core electrons, lmax=3)

Atom   0Pd   ECP group =>   1
Atom  16Pd   ECP group =>   1



           ************************************************************
           *        Program running with 16 parallel MPI-processes    *
           *              working on a common directory               *
           ************************************************************
------------------------------------------------------------------------------
                             ORCA STARTUP CALCULATIONS
                           -- RI-GTO INTEGRALS CHOSEN --
------------------------------------------------------------------------------
------------------------------------------------------------------------------
                   ___                                                        
                  /   \      - P O W E R E D   B Y -                         
                 /     \                                                     
                 |  |  |   _    _      __       _____    __    __             
                 |  |  |  | |  | |    /  \     |  _  \  |  |  /  |          
                  \  \/   | |  | |   /    \    | | | |  |  | /  /          
                 / \  \   | |__| |  /  /\  \   | |_| |  |  |/  /          
                |  |  |   |  __  | /  /__\  \  |    /   |      \           
                |  |  |   | |  | | |   __   |  |    \   |  |\   \          
                \     /   | |  | | |  |  |  |  | |\  \  |  | \   \       
                 \___/    |_|  |_| |__|  |__|  |_| \__\ |__|  \__/        
                                                                              
                      - O R C A' S   B I G   F R I E N D -                    
                                      &                                       
                       - I N T E G R A L  F E E D E R -                       
                                                                              
 v1 FN, 2020, v2 2021, v3 2022-2024                                           
------------------------------------------------------------------------------


----------------------
SHARK INTEGRAL PACKAGE
----------------------

Number of atoms                             ...     30
Number of basis functions                   ...    648
Number of shells                            ...    252
Maximum angular momentum                    ...      3
Integral batch strategy                     ... SHARK/LIBINT Hybrid
RI-J (if used) integral strategy            ... SPLIT-RIJ (Revised 2003 algorithm where possible)
Printlevel                                  ...      1
Contraction scheme used                     ... SEGMENTED contraction
Prescreening option                         ... SCHWARTZ
   Thresh                                   ... 2.500e-11
   Tcut                                     ... 2.500e-12
   Tpresel                                  ... 2.500e-12 
Coulomb Range Separation                    ... NOT USED
Exchange Range Separation                   ... NOT USED
Multipole approximations                    ... NOT USED
Finite Nucleus Model                        ... NOT USED
CABS basis                                  ... NOT available
Auxiliary Coulomb fitting basis             ... AVAILABLE
   # of basis functions in Aux-J            ...   1094
   # of shells in Aux-J                     ...    346
   Maximum angular momentum in Aux-J        ...      4
Auxiliary J/K fitting basis                 ... NOT available
Auxiliary Correlation fitting basis         ... NOT available
Auxiliary 'external' fitting basis          ... NOT available

Checking pre-screening integrals            ... done (  0.1 sec) Dimension = 252
Check shell pair data                       ... done (  0.1 sec)
Shell pair information
Shell pair cut-off parameter TPreSel        ...   2.5e-12
Total number of shell pairs                 ...     31878
Shell pairs after pre-screening             ...     22507
Total number of primitive shell pairs       ...     94809
Primitive shell pairs kept                  ...     44582
          la=0 lb=0:   5477 shell pairs
          la=1 lb=0:   6457 shell pairs
          la=1 lb=1:   1867 shell pairs
          la=2 lb=0:   3362 shell pairs
          la=2 lb=1:   1959 shell pairs
          la=2 lb=2:    557 shell pairs
          la=3 lb=0:   1394 shell pairs
          la=3 lb=1:    864 shell pairs
          la=3 lb=2:    467 shell pairs
          la=3 lb=3:    103 shell pairs

Calculating one electron integrals          ... done (  0.0 sec)
Calculating ECP integrals                   ... done (  2.4 sec)
Calculating RI/J V-Matrix + Cholesky decomp.... done (  0.1 sec)
Calculating Nuclear repulsion               ... done (  0.0 sec) ENN=   1909.308553152348 Eh

Diagonalization of the overlap matrix:
Smallest eigenvalue                        ... 2.305e-04
Time for diagonalization                   ...    0.149 sec
Threshold for overlap eigenvalues          ... 1.000e-07
Number of eigenvalues below threshold      ... 0
Time for construction of square roots      ...    0.084 sec
Total time needed                          ...    0.295 sec

-------------------
DFT GRID GENERATION
-------------------

General Integration Accuracy     IntAcc      ... 4.388
Radial Grid Type                 RadialGrid  ... OptM3 with GC (2021)
Angular Grid (max. ang.)         AngularGrid ... 4 (Lebedev-302)
Angular grid pruning method      GridPruning ... 4 (adaptive)
Weight generation scheme         WeightScheme... mBecke (2022)
Basis function cutoff            BFCut       ... 1.0000e-11
Integration weight cutoff        WCut        ... 1.0000e-14
Partially contracted basis set               ... off
Rotationally invariant grid construction     ... off
Angular grids for H and He will be reduced by one unit

Total number of grid points                  ...   155096
Total number of batches                      ...     2441
Average number of points per batch           ...       63
Average number of grid points per atom       ...     5170

--------------------
COSX GRID GENERATION
--------------------

GRIDX 1
-------
General Integration Accuracy     IntAcc      ... 3.816
Radial Grid Type                 RadialGrid  ... OptM3 with GC (2021)
Angular Grid (max. ang.)         AngularGrid ... 1 (Lebedev-50)
Angular grid pruning method      GridPruning ... 4 (adaptive)
Weight generation scheme         WeightScheme... mBecke (2022)
Basis function cutoff            BFCut       ... 1.0000e-11
Integration weight cutoff        WCut        ... 1.0000e-14
Partially contracted basis set               ... on
Rotationally invariant grid construction     ... off
Angular grids for H and He will be reduced by one unit

Total number of grid points                  ...    26751
Total number of batches                      ...      224
Average number of points per batch           ...      119
Average number of grid points per atom       ...      892
UseSFitting                                  ... on

GRIDX 2
-------
General Integration Accuracy     IntAcc      ... 4.020
Radial Grid Type                 RadialGrid  ... OptM3 with GC (2021)
Angular Grid (max. ang.)         AngularGrid ... 2 (Lebedev-110)
Angular grid pruning method      GridPruning ... 4 (adaptive)
Weight generation scheme         WeightScheme... mBecke (2022)
Basis function cutoff            BFCut       ... 1.0000e-11
Integration weight cutoff        WCut        ... 1.0000e-14
Partially contracted basis set               ... on
Rotationally invariant grid construction     ... off
Angular grids for H and He will be reduced by one unit

Total number of grid points                  ...    47311
Total number of batches                      ...      386
Average number of points per batch           ...      122
Average number of grid points per atom       ...     1577
UseSFitting                                  ... on

GRIDX 3
-------
General Integration Accuracy     IntAcc      ... 4.338
Radial Grid Type                 RadialGrid  ... OptM3 with GC (2021)
Angular Grid (max. ang.)         AngularGrid ... 3 (Lebedev-194)
Angular grid pruning method      GridPruning ... 4 (adaptive)
Weight generation scheme         WeightScheme... mBecke (2022)
Basis function cutoff            BFCut       ... 1.0000e-11
Integration weight cutoff        WCut        ... 1.0000e-14
Partially contracted basis set               ... on
Rotationally invariant grid construction     ... off
Angular grids for H and He will be reduced by one unit

Total number of grid points                  ...    92587
Total number of batches                      ...      741
Average number of points per batch           ...      124
Average number of grid points per atom       ...     3086
UseSFitting                                  ... on
Initializing property integral containers    ... done (  0.1 sec)

SHARK setup successfully completed in   8.7 seconds

Maximum memory used throughout the entire STARTUP-calculation: 56.8 MB


           ************************************************************
           *        Program running with 16 parallel MPI-processes    *
           *              working on a common directory               *
           ************************************************************
-------------------------------------------------------------------------------
                                 ORCA GUESS
                   Start orbitals & Density for SCF / CASSCF
-------------------------------------------------------------------------------

------------
SCF SETTINGS
------------
Hamiltonian:
 Density Functional     Method          .... DFT(GTOs)
 Exchange Functional    Exchange        .... TPSS
 Correlation Functional Correlation     .... TPSS
 LDA part of GGA corr.  LDAOpt          .... PW91-LDA
 Gradients option       PostSCFGGA      .... off
 Hybrid DFT is turned on
   Fraction HF Exchange ScalHFX         ....  0.100000
   Scaling of DF-GGA-X  ScalDFX         ....  0.900000
   Scaling of DF-GGA-C  ScalDFC         ....  1.000000
   Scaling of DF-LDA-C  ScalLDAC        ....  1.000000
   Perturbative correction              ....  0.000000
   NL short-range parameter             ....  5.200000
 RI-approximation to the Coulomb term is turned on
   Number of AuxJ basis functions       .... 1094
   RIJ-COSX (HFX calculated with COS-X)).... on


General Settings:
 Integral files         IntName         .... CS_PdOAc_002_sp_01
 Hartree-Fock type      HFTyp           .... RHF
 Total Charge           Charge          ....    0
 Multiplicity           Mult            ....    1
 Number of Electrons    NEL             ....  160
 Basis Dimension        Dim             ....  648
 Nuclear Repulsion      ENuc            ....   1909.3085531523 Eh

Convergence Acceleration:
 AO-DIIS                CNVDIIS         .... on
   Start iteration      DIISMaxIt       ....     0
   Startup error        DIISStart       ....  0.200000
   # of expansion vecs  DIISMaxEq       ....     5
   Bias factor          DIISBfac        ....   1.050
   Max. coefficient     DIISMaxC        ....  10.000
 MO-DIIS                CNVKDIIS        .... off
 Trust-Rad. Augm. Hess. CNVTRAH         .... auto
   Auto Start mean grad. ratio tolernc. ....  1.125000
   Auto Start start iteration           ....    50
   Auto Start num. interpolation iter.  ....    10
   Max. Number of Micro iterations      ....    24
   Max. Number of Macro iterations      .... Maxiter - #DIIS iter
   Number of Davidson start vectors     ....     2
   Converg. threshold    (grad. norm)   ....   1.000e-05
   Grad. Scal. Fac. for Micro threshold ....   0.100
   Minimum threshold for Micro iter.    ....   1.000e-02
   NR start threshold (gradient norm)   ....   1.000e-04
   Initial trust radius                 ....   0.400
   Minimum AH scaling param. (alpha)    ....   1.000
   Maximum AH scaling param. (alpha)    .... 1000.000
   Quad. conv. algorithm                .... NR
   White noise on init. David. guess    .... on
   Maximum white noise                  ....   0.010
   Pseudo random numbers                .... off
   Inactive MOs                         .... canonical
   Orbital update algorithm             .... Taylor
   Preconditioner                       .... Diag
   Full preconditioner red. dimension   ....   250
 SOSCF                  CNVSOSCF        .... on
   Start iteration      SOSCFMaxIt      ....   150
   Startup grad/error   SOSCFStart      ....  0.001000
   Hessian update       SOSCFHessUp     .... L-BFGS
 Level Shifting         CNVShift        .... on
   Level shift para.    LevelShift      ....    0.2500
   Turn off err/grad.   ShiftErr        ....    0.0000
 Zerner damping         CNVZerner       .... off
 Static damping         CNVDamp         .... on
   Fraction old density DampFac         ....    0.8500
   Max. Damping (<1)    DampMax         ....    0.9800
   Min. Damping (>=0)   DampMin         ....    0.0000
   Turn off err/grad.   DampErr         ....    0.0300

SCF Procedure:
 Maximum # iterations   MaxIter         ....  1500
 SCF integral mode      SCFMode         .... Direct
   Integral package                     .... SHARK and LIBINT hybrid scheme
 Reset frequency        DirectResetFreq ....    20
 Integral Threshold     Thresh          ....  2.500e-11 Eh
 Primitive CutOff       TCut            ....  2.500e-12 Eh

Convergence Tolerance:
 Convergence Check Mode ConvCheckMode   .... Total+1el-Energy
 Convergence forced     ConvForced      .... 0
 Energy Change          TolE            ....  1.000e-08 Eh
 1-El. energy change                    ....  1.000e-05 Eh
 Orbital Gradient       TolG            ....  1.000e-05
 Orbital Rotation angle TolX            ....  1.000e-05
 DIIS Error             TolErr          ....  5.000e-07

------------------------------
INITIAL GUESS: MODEL POTENTIAL
------------------------------
Loading Hartree-Fock densities                     ... done
Atomic calculation to generate a density for atom 0 (Pd with ECP)
  Multiplicity assumed   :    3
  Atomic configuration   : 1s2 2s2 2p6 3s2 3p6 4s2 3d10 4p6 5s2 4d8 
  Number of open shells  : 1
  Command: /opt/apps/software/ORCA/6.0.0-gompi-2023b/bin/orca CS_PdOAc_002_sp_01_atom46.inp "" > CS_PdOAc_002_sp_01_atom46.out
Returned from the atomic calculation with res=0
Calculating cut-offs                               ... done
Initializing the effective Hamiltonian             ... done
Setting up the integral package (SHARK)            ... done
Starting the Coulomb interaction                   ... done (   0.4 sec)
Making the grid                                    ... done (   0.5 sec)
Mapping shells                                     ... done
Starting the XC term evaluation                    ... done (   0.2 sec)
  promolecular density results
     # of electrons  =    215.982127907
     EX              =   -386.844708439
     EC              =     -9.070804980
     EX+EC           =   -395.915513420
Transforming the Hamiltonian                       ... done (   0.1 sec)
Diagonalizing the Hamiltonian                      ... done (   0.1 sec)
Back transforming the eigenvectors                 ... done (   0.1 sec)
Now organizing SCF variables                       ... done
                      ------------------
                      INITIAL GUESS DONE (  11.5 sec)
                      ------------------
             **** ENERGY FILE WAS UPDATED (CS_PdOAc_002_sp_01.en.tmp) ****
Finished Guess after  12.8 sec
Maximum memory used throughout the entire GUESS-calculation: 41.5 MB


           ************************************************************
           *        Program running with 16 parallel MPI-processes    *
           *              working on a common directory               *
           ************************************************************

-------------------------------------------------------------------------------------------
                                      ORCA LEAN-SCF
                              memory conserving SCF solver
-------------------------------------------------------------------------------------------

----------------------------------------D-I-I-S--------------------------------------------
Iteration    Energy (Eh)           Delta-E    RMSDP     MaxDP     DIISErr   Damp  Time(sec)
-------------------------------------------------------------------------------------------
               ***  Starting incremental Fock matrix formation  ***
    1    -1169.5878975322837050     0.00e+00  5.01e-04  2.43e-02  4.70e-01  0.850   9.6
    2    -1169.7595235477617734    -1.72e-01  4.88e-04  2.03e-02  3.96e-01  0.850   7.3
                               ***Turning on AO-DIIS***
    3    -1169.8634181381769395    -1.04e-01  2.68e-04  1.40e-02  3.33e-01  0.850   7.9
    4    -1169.9270090152338071    -6.36e-02  1.74e-04  1.10e-02  2.82e-01  0.850   7.5
    5    -1169.9719267441762440    -4.49e-02  1.28e-04  8.70e-03  2.39e-01  0.850   6.4
    6    -1170.0072652055253002    -3.53e-02  1.05e-04  7.16e-03  2.03e-01  0.850   7.1
    7    -1170.0365073588279756    -2.92e-02  9.11e-05  6.22e-03  1.73e-01  0.850   6.6
    8    -1170.0609957410736115    -2.45e-02  7.79e-05  5.73e-03  1.47e-01  0.850   6.1
    9    -1170.0811751965445637    -2.02e-02  6.56e-05  4.92e-03  1.25e-01  0.850   5.8
   10    -1170.0977919540930543    -1.66e-02  5.48e-05  4.00e-03  1.06e-01  0.850   6.5
   11    -1170.1115696761187337    -1.38e-02  4.61e-05  3.30e-03  8.99e-02  0.850   5.7
   12    -1170.1230619800051045    -1.15e-02  3.90e-05  2.83e-03  7.64e-02  0.850   7.5
   13    -1170.1326746386446302    -9.61e-03  3.30e-05  2.47e-03  6.49e-02  0.850   5.5
   14    -1170.1407272266399104    -8.05e-03  2.78e-05  2.10e-03  5.52e-02  0.850   5.5
   15    -1170.1474883441881047    -6.76e-03  2.34e-05  1.75e-03  4.68e-02  0.850   5.7
   16    -1170.1531793337319414    -5.69e-03  1.97e-05  1.47e-03  3.98e-02  0.850   5.4
   17    -1170.1579786012505338    -4.80e-03  1.67e-05  1.26e-03  3.38e-02  0.850   5.5
   18    -1170.1620307751725250    -4.05e-03  1.41e-05  1.08e-03  2.87e-02  0.850   5.3
   19    -1170.1654553553105416    -3.42e-03  7.95e-05  6.10e-03  2.44e-02  0.000   5.5
                              *** Initializing SOSCF ***
---------------------------------------S-O-S-C-F--------------------------------------
Iteration    Energy (Eh)           Delta-E    RMSDP     MaxDP     MaxGrad    Time(sec)
--------------------------------------------------------------------------------------
   20    -1170.1845502637486334    -1.91e-02  4.40e-06  2.34e-04  3.88e-04     8.1
               *** Restarting incremental Fock matrix formation ***
   21    -1170.1845461550535674     4.11e-06  4.06e-06  3.30e-04  7.65e-05     9.1
   22    -1170.1845454131914721     7.42e-07  2.88e-06  2.66e-04  2.09e-04     6.4
   23    -1170.1845463751731131    -9.62e-07  1.27e-06  1.38e-04  3.49e-05     5.6
   24    -1170.1845462762037187     9.90e-08  8.20e-07  7.10e-05  5.27e-05     6.0
   25    -1170.1845464131617973    -1.37e-07  1.28e-07  1.05e-05  2.42e-06     5.7
                  *** Gradient check signals convergence ***

               *****************************************************
               *                     SUCCESS                       *
               *           SCF CONVERGED AFTER  25 CYCLES          *
               *****************************************************

Recomputing exchange energy using gridx3       ... done (    7.967 sec)
Old exchange energy                            :    -13.523160066 Eh
New exchange energy                            :    -13.523159591 Eh
Exchange energy change after final integration :      0.000000475 Eh
Total energy after final integration           :  -1170.184545938 Eh
             **** ENERGY FILE WAS UPDATED (CS_PdOAc_002_sp_01.en.tmp) ****

----------------
TOTAL SCF ENERGY
----------------

Total Energy       :      -1170.18454593840329 Eh          -31842.34033 eV

Components:
Nuclear Repulsion  :       1909.30855315234817 Eh           51954.92707 eV
Electronic Energy  :      -3079.49309956550997 Eh          -83797.26741 eV
One Electron Energy:      -5507.29343434067869 Eh         -149861.07314 eV
Two Electron Energy:       2427.80033477516872 Eh           66063.80573 eV

Virial components:
Potential Energy   :      -2176.87293619946013 Eh          -59235.72408 eV
Kinetic Energy     :       1006.68839026105684 Eh           27393.38375 eV
Virial Ratio       :          2.16240989491788

DFT components:
N(Alpha)           :       80.000087548511 electrons
N(Beta)            :       80.000087548511 electrons
N(Total)           :      160.000175097022 electrons
E(X)               :     -122.887519944649 Eh       
E(C)               :       -5.782109616656 Eh       
E(XC)              :     -128.669629561305 Eh       

---------------
SCF CONVERGENCE
---------------

  Last Energy change         ...    1.3696e-07  Tolerance :   1.0000e-08
  Last MAX-Density change    ...    1.0472e-05  Tolerance :   1.0000e-07
  Last RMS-Density change    ...    1.2813e-07  Tolerance :   5.0000e-09
  Last DIIS Error            ...    3.8789e-04  Tolerance :   5.0000e-07
  Last Orbital Gradient      ...    2.4229e-06  Tolerance :   1.0000e-05
  Last Orbital Rotation      ...    4.2899e-06  Tolerance :   1.0000e-05


----------------
ORBITAL ENERGIES
----------------

  NO   OCC          E(Eh)            E(eV) 
   0   2.0000     -19.077685      -519.1302 
   1   2.0000     -19.077482      -519.1247 
   2   2.0000     -19.077135      -519.1152 
   3   2.0000     -19.076999      -519.1115 
   4   2.0000     -19.074755      -519.0505 
   5   2.0000     -19.074728      -519.0497 
   6   2.0000     -19.074626      -519.0470 
   7   2.0000     -19.074461      -519.0425 
   8   2.0000     -10.246059      -278.8094 
   9   2.0000     -10.245930      -278.8059 
  10   2.0000     -10.243541      -278.7409 
  11   2.0000     -10.243501      -278.7398 
  12   2.0000     -10.137027      -275.8425 
  13   2.0000     -10.136945      -275.8403 
  14   2.0000     -10.127541      -275.5844 
  15   2.0000     -10.127531      -275.5841 
  16   2.0000      -3.443114       -93.6919 
  17   2.0000      -3.443000       -93.6888 
  18   2.0000      -2.150641       -58.5219 
  19   2.0000      -2.150330       -58.5135 
  20   2.0000      -2.144954       -58.3672 
  21   2.0000      -2.144812       -58.3633 
  22   2.0000      -2.105503       -57.2937 
  23   2.0000      -2.103915       -57.2504 
  24   2.0000      -1.086011       -29.5519 
  25   2.0000      -1.085447       -29.5365 
  26   2.0000      -1.073924       -29.2230 
  27   2.0000      -1.070561       -29.1315 
  28   2.0000      -0.989341       -26.9213 
  29   2.0000      -0.986554       -26.8455 
  30   2.0000      -0.977171       -26.5902 
  31   2.0000      -0.976786       -26.5797 
  32   2.0000      -0.743300       -20.2262 
  33   2.0000      -0.742992       -20.2178 
  34   2.0000      -0.730045       -19.8655 
  35   2.0000      -0.728955       -19.8359 
  36   2.0000      -0.558177       -15.1888 
  37   2.0000      -0.552991       -15.0476 
  38   2.0000      -0.540208       -14.6998 
  39   2.0000      -0.536140       -14.5891 
  40   2.0000      -0.506724       -13.7887 
  41   2.0000      -0.502785       -13.6815 
  42   2.0000      -0.481117       -13.0919 
  43   2.0000      -0.478243       -13.0137 
  44   2.0000      -0.475060       -12.9271 
  45   2.0000      -0.474218       -12.9041 
  46   2.0000      -0.468690       -12.7537 
  47   2.0000      -0.463977       -12.6254 
  48   2.0000      -0.463141       -12.6027 
  49   2.0000      -0.461437       -12.5563 
  50   2.0000      -0.459338       -12.4992 
  51   2.0000      -0.450851       -12.2683 
  52   2.0000      -0.401717       -10.9313 
  53   2.0000      -0.401330       -10.9207 
  54   2.0000      -0.398544       -10.8449 
  55   2.0000      -0.398047       -10.8314 
  56   2.0000      -0.392430       -10.6786 
  57   2.0000      -0.388976       -10.5846 
  58   2.0000      -0.385779       -10.4976 
  59   2.0000      -0.373991       -10.1768 
  60   2.0000      -0.351447        -9.5634 
  61   2.0000      -0.350607        -9.5405 
  62   2.0000      -0.348407        -9.4806 
  63   2.0000      -0.337891        -9.1945 
  64   2.0000      -0.332542        -9.0489 
  65   2.0000      -0.317065        -8.6278 
  66   2.0000      -0.311094        -8.4653 
  67   2.0000      -0.310514        -8.4495 
  68   2.0000      -0.303004        -8.2452 
  69   2.0000      -0.299946        -8.1619 
  70   2.0000      -0.289562        -7.8794 
  71   2.0000      -0.286554        -7.7975 
  72   2.0000      -0.281194        -7.6517 
  73   2.0000      -0.269098        -7.3225 
  74   2.0000      -0.255824        -6.9613 
  75   2.0000      -0.253572        -6.9000 
  76   2.0000      -0.246780        -6.7152 
  77   2.0000      -0.240305        -6.5390 
  78   2.0000      -0.236471        -6.4347 
  79   2.0000      -0.203602        -5.5403 
  80   0.0000      -0.113102        -3.0777 
  81   0.0000      -0.103916        -2.8277 
  82   0.0000      -0.029026        -0.7898 
  83   0.0000      -0.019117        -0.5202 
  84   0.0000      -0.012061        -0.3282 
  85   0.0000      -0.009071        -0.2468 
  86   0.0000       0.006765         0.1841 
  87   0.0000       0.022659         0.6166 
  88   0.0000       0.027682         0.7533 
  89   0.0000       0.042204         1.1484 
  90   0.0000       0.042250         1.1497 
*Only the first 10 virtual orbitals were printed.

                    ********************************
                    * MULLIKEN POPULATION ANALYSIS *
                    ********************************

-----------------------
MULLIKEN ATOMIC CHARGES
-----------------------
   0 Pd:    0.499974
   1 O :   -0.411251
   2 O :   -0.410901
   3 C :    0.485069
   4 C :   -0.340024
   5 H :    0.145146
   6 H :    0.145210
   7 H :    0.133412
   8 O :   -0.387822
   9 C :    0.469241
  10 O :   -0.388225
  11 C :   -0.372136
  12 H :    0.148675
  13 H :    0.134590
  14 H :    0.148939
  15 O :   -0.388358
  16 Pd:    0.500085
  17 O :   -0.387500
  18 C :    0.469074
  19 H :    0.148943
  20 H :    0.134555
  21 C :   -0.371985
  22 H :    0.148613
  23 O :   -0.411683
  24 C :    0.485368
  25 O :   -0.410739
  26 C :   -0.340249
  27 H :    0.133426
  28 H :    0.145267
  29 H :    0.145284
Sum of atomic charges:   -0.0000000

--------------------------------
MULLIKEN REDUCED ORBITAL CHARGES
--------------------------------
  0 Pds       :     2.562341  s :     2.562341
      pz      :     2.086812  p :     6.274534
      px      :     2.086246
      py      :     2.101476
      dz2     :     1.189812  d :     8.657992
      dxz     :     1.962157
      dyz     :     1.894535
      dx2y2   :     1.619178
      dxy     :     1.992309
      f0      :     0.001266  f :     0.005159
      f+1     :     0.000483
      f-1     :     0.001492
      f+2     :     0.000366
      f-2     :     0.000135
      f+3     :     0.000392
      f-3     :     0.001025

  1 O s       :     3.860111  s :     3.860111
      pz      :     1.489255  p :     4.517566
      px      :     1.471308
      py      :     1.557004
      dz2     :     0.006356  d :     0.031680
      dxz     :     0.008376
      dyz     :     0.003585
      dx2y2   :     0.006500
      dxy     :     0.006864
      f0      :     0.000213  f :     0.001894
      f+1     :     0.000405
      f-1     :     0.000111
      f+2     :     0.000337
      f-2     :     0.000283
      f+3     :     0.000273
      f-3     :     0.000272

  2 O s       :     3.859888  s :     3.859888
      pz      :     1.518471  p :     4.517357
      px      :     1.423170
      py      :     1.575717
      dz2     :     0.006406  d :     0.031760
      dxz     :     0.007926
      dyz     :     0.003306
      dx2y2   :     0.006769
      dxy     :     0.007354
      f0      :     0.000202  f :     0.001896
      f+1     :     0.000409
      f-1     :     0.000083
      f+2     :     0.000334
      f-2     :     0.000243
      f+3     :     0.000294
      f-3     :     0.000331

  3 C s       :     3.079891  s :     3.079891
      pz      :     0.739144  p :     2.122345
      px      :     0.653455
      py      :     0.729745
      dz2     :     0.073582  d :     0.285955
      dxz     :     0.063959
      dyz     :     0.029480
      dx2y2   :     0.047865
      dxy     :     0.071070
      f0      :     0.002037  f :     0.026740
      f+1     :     0.009494
      f-1     :     0.001378
      f+2     :     0.003330
      f-2     :     0.003500
      f+3     :     0.003297
      f-3     :     0.003704

  4 C s       :     3.222122  s :     3.222122
      pz      :     0.915322  p :     3.062588
      px      :     1.082801
      py      :     1.064464
      dz2     :     0.011704  d :     0.050754
      dxz     :     0.014811
      dyz     :     0.010743
      dx2y2   :     0.007378
      dxy     :     0.006117
      f0      :     0.001276  f :     0.004560
      f+1     :     0.000905
      f-1     :     0.000708
      f+2     :     0.000333
      f-2     :     0.000316
      f+3     :     0.000516
      f-3     :     0.000505

  5 H s       :     0.835230  s :     0.835230
      pz      :     0.005120  p :     0.019624
      px      :     0.007750
      py      :     0.006754

  6 H s       :     0.835171  s :     0.835171
      pz      :     0.005450  p :     0.019619
      px      :     0.009760
      py      :     0.004409

  7 H s       :     0.846470  s :     0.846470
      pz      :     0.004753  p :     0.020117
      px      :     0.004927
      py      :     0.010437

  8 O s       :     3.898544  s :     3.898544
      pz      :     1.286026  p :     4.455431
      px      :     1.569120
      py      :     1.600286
      dz2     :     0.011358  d :     0.032149
      dxz     :     0.008188
      dyz     :     0.006821
      dx2y2   :     0.003014
      dxy     :     0.002768
      f0      :     0.000544  f :     0.001698
      f+1     :     0.000477
      f-1     :     0.000398
      f+2     :     0.000084
      f-2     :     0.000052
      f+3     :     0.000074
      f-3     :     0.000069

  9 C s       :     3.140895  s :     3.140895
      pz      :     0.667466  p :     2.060776
      px      :     0.733617
      py      :     0.659693
      dz2     :     0.048532  d :     0.305308
      dxz     :     0.057119
      dyz     :     0.124886
      dx2y2   :     0.021747
      dxy     :     0.053024
      f0      :     0.003947  f :     0.023779
      f+1     :     0.003619
      f-1     :     0.006959
      f+2     :     0.002317
      f-2     :     0.001891
      f+3     :     0.003221
      f-3     :     0.001826

 10 O s       :     3.899058  s :     3.899058
      pz      :     1.587072  p :     4.455270
      px      :     1.571920
      py      :     1.296278
      dz2     :     0.006818  d :     0.032198
      dxz     :     0.003860
      dyz     :     0.008349
      dx2y2   :     0.006043
      dxy     :     0.007128
      f0      :     0.000177  f :     0.001698
      f+1     :     0.000065
      f-1     :     0.000321
      f+2     :     0.000322
      f-2     :     0.000166
      f+3     :     0.000373
      f-3     :     0.000273

 11 C s       :     3.249255  s :     3.249255
      pz      :     1.024435  p :     3.070148
      px      :     1.059412
      py      :     0.986300
      dz2     :     0.009480  d :     0.048417
      dxz     :     0.009783
      dyz     :     0.009362
      dx2y2   :     0.008857
      dxy     :     0.010936
      f0      :     0.000432  f :     0.004317
      f+1     :     0.000531
      f-1     :     0.000778
      f+2     :     0.000762
      f-2     :     0.000828
      f+3     :     0.000556
      f-3     :     0.000430

 12 H s       :     0.831599  s :     0.831599
      pz      :     0.005478  p :     0.019726
      px      :     0.005635
      py      :     0.008612

 13 H s       :     0.845264  s :     0.845264
      pz      :     0.004893  p :     0.020146
      px      :     0.010030
      py      :     0.005223

 14 H s       :     0.831357  s :     0.831357
      pz      :     0.009563  p :     0.019705
      px      :     0.005899
      py      :     0.004242

 15 O s       :     3.899091  s :     3.899091
      pz      :     1.292907  p :     4.455426
      px      :     1.561433
      py      :     1.601086
      dz2     :     0.011212  d :     0.032144
      dxz     :     0.007675
      dyz     :     0.007171
      dx2y2   :     0.002862
      dxy     :     0.003224
      f0      :     0.000537  f :     0.001697
      f+1     :     0.000426
      f-1     :     0.000409
      f+2     :     0.000083
      f-2     :     0.000103
      f+3     :     0.000067
      f-3     :     0.000073

 16 Pds       :     2.562409  s :     2.562409
      pz      :     2.084496  p :     6.274711
      px      :     2.108086
      py      :     2.082130
      dz2     :     1.238478  d :     8.657628
      dxz     :     1.862513
      dyz     :     1.956413
      dx2y2   :     1.819568
      dxy     :     1.780655
      f0      :     0.001134  f :     0.005167
      f+1     :     0.001032
      f-1     :     0.001012
      f+2     :     0.000265
      f-2     :     0.000301
      f+3     :     0.001012
      f-3     :     0.000410

 17 O s       :     3.898145  s :     3.898145
      pz      :     1.586363  p :     4.455499
      px      :     1.531683
      py      :     1.337454
      dz2     :     0.006719  d :     0.032158
      dxz     :     0.004823
      dyz     :     0.007352
      dx2y2   :     0.006895
      dxy     :     0.006370
      f0      :     0.000175  f :     0.001697
      f+1     :     0.000094
      f-1     :     0.000292
      f+2     :     0.000243
      f-2     :     0.000246
      f+3     :     0.000287
      f-3     :     0.000360

 18 C s       :     3.140974  s :     3.140974
      pz      :     0.670242  p :     2.060883
      px      :     0.714103
      py      :     0.676538
      dz2     :     0.048659  d :     0.305288
      dxz     :     0.067284
      dyz     :     0.111737
      dx2y2   :     0.034990
      dxy     :     0.042618
      f0      :     0.004004  f :     0.023782
      f+1     :     0.004067
      f-1     :     0.006002
      f+2     :     0.002466
      f-2     :     0.002175
      f+3     :     0.002102
      f-3     :     0.002966

 19 H s       :     0.831353  s :     0.831353
      pz      :     0.005928  p :     0.019703
      px      :     0.006569
      py      :     0.007206

 20 H s       :     0.845303  s :     0.845303
      pz      :     0.006146  p :     0.020142
      px      :     0.007332
      py      :     0.006664

 21 C s       :     3.249004  s :     3.249004
      pz      :     1.030299  p :     3.070232
      px      :     1.028636
      py      :     1.011298
      dz2     :     0.005723  d :     0.048430
      dxz     :     0.012471
      dyz     :     0.011025
      dx2y2   :     0.006334
      dxy     :     0.012878
      f0      :     0.000444  f :     0.004318
      f+1     :     0.000359
      f-1     :     0.000603
      f+2     :     0.000414
      f-2     :     0.001725
      f+3     :     0.000304
      f-3     :     0.000469

 22 H s       :     0.831660  s :     0.831660
      pz      :     0.008044  p :     0.019727
      px      :     0.006295
      py      :     0.005388

 23 O s       :     3.860177  s :     3.860177
      pz      :     1.569954  p :     4.517867
      px      :     1.359741
      py      :     1.588172
      dz2     :     0.002900  d :     0.031743
      dxz     :     0.008182
      dyz     :     0.002254
      dx2y2   :     0.010788
      dxy     :     0.007620
      f0      :     0.000243  f :     0.001896
      f+1     :     0.000255
      f-1     :     0.000088
      f+2     :     0.000284
      f-2     :     0.000126
      f+3     :     0.000462
      f-3     :     0.000439

 24 C s       :     3.079729  s :     3.079729
      pz      :     0.739278  p :     2.122232
      px      :     0.653545
      py      :     0.729409
      dz2     :     0.006489  d :     0.285934
      dxz     :     0.074673
      dyz     :     0.031512
      dx2y2   :     0.100509
      dxy     :     0.072751
      f0      :     0.002807  f :     0.026737
      f+1     :     0.001697
      f-1     :     0.000976
      f+2     :     0.002596
      f-2     :     0.003578
      f+3     :     0.008273
      f-3     :     0.006810

 25 O s       :     3.859973  s :     3.859973
      pz      :     1.572603  p :     4.517129
      px      :     1.529685
      py      :     1.414841
      dz2     :     0.002798  d :     0.031742
      dxz     :     0.005835
      dyz     :     0.004579
      dx2y2   :     0.008764
      dxy     :     0.009766
      f0      :     0.000251  f :     0.001895
      f+1     :     0.000159
      f-1     :     0.000169
      f+2     :     0.000067
      f-2     :     0.000333
      f+3     :     0.000457
      f-3     :     0.000461

 26 C s       :     3.222262  s :     3.222262
      pz      :     1.058464  p :     3.062677
      px      :     1.076202
      py      :     0.928011
      dz2     :     0.007101  d :     0.050749
      dxz     :     0.008400
      dyz     :     0.012464
      dx2y2   :     0.011138
      dxy     :     0.011647
      f0      :     0.000694  f :     0.004561
      f+1     :     0.000123
      f-1     :     0.000674
      f+2     :     0.000836
      f-2     :     0.000367
      f+3     :     0.000930
      f-3     :     0.000936

 27 H s       :     0.846451  s :     0.846451
      pz      :     0.009686  p :     0.020123
      px      :     0.004529
      py      :     0.005909

 28 H s       :     0.835113  s :     0.835113
      pz      :     0.005750  p :     0.019620
      px      :     0.008020
      py      :     0.005849

 29 H s       :     0.835096  s :     0.835096
      pz      :     0.005937  p :     0.019620
      px      :     0.009599
      py      :     0.004085



                     *******************************
                     * LOEWDIN POPULATION ANALYSIS *
                     *******************************

----------------------
LOEWDIN ATOMIC CHARGES
----------------------
   0 Pd:    0.215265
   1 O :    0.136602
   2 O :    0.137108
   3 C :   -0.529693
   4 C :   -0.241010
   5 H :    0.137247
   6 H :    0.136515
   7 H :    0.142539
   8 O :    0.120024
   9 C :   -0.557163
  10 O :    0.120771
  11 C :   -0.245186
  12 H :    0.141946
  13 H :    0.144127
  14 H :    0.140790
  15 O :    0.120807
  16 Pd:    0.215342
  17 O :    0.119749
  18 C :   -0.557203
  19 H :    0.140683
  20 H :    0.144066
  21 C :   -0.245228
  22 H :    0.142077
  23 O :    0.136774
  24 C :   -0.529594
  25 O :    0.137271
  26 C :   -0.240964
  27 H :    0.142536
  28 H :    0.137117
  29 H :    0.136685

-------------------------------
LOEWDIN REDUCED ORBITAL CHARGES
-------------------------------
  0 Pds       :     2.293063  s :     2.293063
      pz      :     2.207708  p :     6.553870
      px      :     2.125846
      py      :     2.220316
      dz2     :     1.326989  d :     8.931470
      dxz     :     1.970355
      dyz     :     1.927449
      dx2y2   :     1.703373
      dxy     :     2.003304
      f0      :     0.001625  f :     0.006332
      f+1     :     0.000583
      f-1     :     0.001856
      f+2     :     0.000396
      f-2     :     0.000137
      f+3     :     0.000437
      f-3     :     0.001298

  1 O s       :     3.339874  s :     3.339874
      pz      :     1.455778  p :     4.436880
      px      :     1.517167
      py      :     1.463934
      dz2     :     0.018736  d :     0.080834
      dxz     :     0.025028
      dyz     :     0.009504
      dx2y2   :     0.015262
      dxy     :     0.012302
      f0      :     0.000634  f :     0.005810
      f+1     :     0.001563
      f-1     :     0.000321
      f+2     :     0.001049
      f-2     :     0.000670
      f+3     :     0.000796
      f-3     :     0.000777

  2 O s       :     3.339819  s :     3.339819
      pz      :     1.468605  p :     4.436290
      px      :     1.498987
      py      :     1.468698
      dz2     :     0.017959  d :     0.080968
      dxz     :     0.025291
      dyz     :     0.007874
      dx2y2   :     0.017206
      dxy     :     0.012639
      f0      :     0.000666  f :     0.005815
      f+1     :     0.001483
      f-1     :     0.000269
      f+2     :     0.001163
      f-2     :     0.000454
      f+3     :     0.000938
      f-3     :     0.000842

  3 C s       :     2.740711  s :     2.740711
      pz      :     0.990644  p :     2.645363
      px      :     0.919645
      py      :     0.735074
      dz2     :     0.226394  d :     0.981037
      dxz     :     0.265293
      dyz     :     0.091508
      dx2y2   :     0.190084
      dxy     :     0.207757
      f0      :     0.011694  f :     0.162583
      f+1     :     0.058663
      f-1     :     0.008372
      f+2     :     0.021972
      f-2     :     0.025107
      f+3     :     0.018711
      f-3     :     0.018064

  4 C s       :     2.837399  s :     2.837399
      pz      :     1.012867  p :     3.150218
      px      :     1.070105
      py      :     1.067246
      dz2     :     0.065523  d :     0.228806
      dxz     :     0.062890
      dyz     :     0.041733
      dx2y2   :     0.032159
      dxy     :     0.026500
      f0      :     0.006491  f :     0.024586
      f+1     :     0.004425
      f-1     :     0.005036
      f+2     :     0.002469
      f-2     :     0.002708
      f+3     :     0.001746
      f-3     :     0.001711

  5 H s       :     0.803022  s :     0.803022
      pz      :     0.013979  p :     0.059730
      px      :     0.024427
      py      :     0.021324

  6 H s       :     0.803763  s :     0.803763
      pz      :     0.014954  p :     0.059722
      px      :     0.031515
      py      :     0.013253

  7 H s       :     0.797889  s :     0.797889
      pz      :     0.012730  p :     0.059572
      px      :     0.014350
      py      :     0.032492

  8 O s       :     3.374887  s :     3.374887
      pz      :     1.448687  p :     4.422405
      px      :     1.471496
      py      :     1.502222
      dz2     :     0.031375  d :     0.076712
      dxz     :     0.013849
      dyz     :     0.021012
      dx2y2   :     0.005240
      dxy     :     0.005235
      f0      :     0.002055  f :     0.005972
      f+1     :     0.001172
      f-1     :     0.001978
      f+2     :     0.000219
      f-2     :     0.000196
      f+3     :     0.000183
      f-3     :     0.000168

  9 C s       :     2.752203  s :     2.752203
      pz      :     0.949665  p :     2.652280
      px      :     0.721433
      py      :     0.981183
      dz2     :     0.234439  d :     0.991465
      dxz     :     0.158636
      dyz     :     0.341138
      dx2y2   :     0.118187
      dxy     :     0.139066
      f0      :     0.028052  f :     0.161215
      f+1     :     0.022620
      f-1     :     0.051816
      f+2     :     0.015524
      f-2     :     0.012454
      f+3     :     0.017047
      f-3     :     0.013701

 10 O s       :     3.374895  s :     3.374895
      pz      :     1.523860  p :     4.421575
      px      :     1.470648
      py      :     1.427066
      dz2     :     0.013982  d :     0.076787
      dxz     :     0.005940
      dyz     :     0.025315
      dx2y2   :     0.019186
      dxy     :     0.012364
      f0      :     0.000720  f :     0.005972
      f+1     :     0.000155
      f-1     :     0.001564
      f+2     :     0.001243
      f-2     :     0.000538
      f+3     :     0.000736
      f-3     :     0.001016

 11 C s       :     2.834559  s :     2.834559
      pz      :     1.053571  p :     3.161223
      px      :     1.063580
      py      :     1.044072
      dz2     :     0.041068  d :     0.224872
      dxz     :     0.039358
      dyz     :     0.059659
      dx2y2   :     0.043374
      dxy     :     0.041413
      f0      :     0.003285  f :     0.024531
      f+1     :     0.002621
      f-1     :     0.004763
      f+2     :     0.003788
      f-2     :     0.003580
      f+3     :     0.003354
      f-3     :     0.003141

 12 H s       :     0.798347  s :     0.798347
      pz      :     0.017731  p :     0.059707
      px      :     0.017154
      py      :     0.024822

 13 H s       :     0.796485  s :     0.796485
      pz      :     0.013558  p :     0.059388
      px      :     0.031760
      py      :     0.014070

 14 H s       :     0.799534  s :     0.799534
      pz      :     0.028562  p :     0.059676
      px      :     0.018095
      py      :     0.013019

 15 O s       :     3.375038  s :     3.375038
      pz      :     1.449726  p :     4.421516
      px      :     1.464637
      py      :     1.507153
      dz2     :     0.030183  d :     0.076672
      dxz     :     0.014886
      dyz     :     0.020446
      dx2y2   :     0.005561
      dxy     :     0.005597
      f0      :     0.001924  f :     0.005967
      f+1     :     0.001278
      f-1     :     0.001838
      f+2     :     0.000308
      f-2     :     0.000261
      f+3     :     0.000171
      f-3     :     0.000187

 16 Pds       :     2.293081  s :     2.293081
      pz      :     2.204644  p :     6.553843
      px      :     2.156686
      py      :     2.192514
      dz2     :     1.372357  d :     8.931392
      dxz     :     1.882512
      dyz     :     1.980610
      dx2y2   :     1.873890
      dxy     :     1.822023
      f0      :     0.001450  f :     0.006342
      f+1     :     0.001289
      f-1     :     0.001247
      f+2     :     0.000290
      f-2     :     0.000323
      f+3     :     0.001276
      f-3     :     0.000467

 17 O s       :     3.374805  s :     3.374805
      pz      :     1.522388  p :     4.422731
      px      :     1.458790
      py      :     1.441553
      dz2     :     0.013787  d :     0.076744
      dxz     :     0.008759
      dyz     :     0.022234
      dx2y2   :     0.016382
      dxy     :     0.015582
      f0      :     0.000707  f :     0.005971
      f+1     :     0.000377
      f-1     :     0.001314
      f+2     :     0.001010
      f-2     :     0.000778
      f+3     :     0.001011
      f-3     :     0.000774

 18 C s       :     2.752184  s :     2.752184
      pz      :     0.944732  p :     2.652331
      px      :     0.781233
      py      :     0.926366
      dz2     :     0.231831  d :     0.991465
      dxz     :     0.186322
      dyz     :     0.306984
      dx2y2   :     0.127292
      dxy     :     0.139037
      f0      :     0.028053  f :     0.161222
      f+1     :     0.027265
      f-1     :     0.044411
      f+2     :     0.017592
      f-2     :     0.012372
      f+3     :     0.014867
      f-3     :     0.016662

 19 H s       :     0.799648  s :     0.799648
      pz      :     0.019232  p :     0.059668
      px      :     0.019606
      py      :     0.020830

 20 H s       :     0.796544  s :     0.796544
      pz      :     0.016993  p :     0.059389
      px      :     0.023995
      py      :     0.018401

 21 C s       :     2.834543  s :     2.834543
      pz      :     1.054021  p :     3.161251
      px      :     1.057111
      py      :     1.050120
      dz2     :     0.023780  d :     0.224900
      dxz     :     0.057988
      dyz     :     0.061994
      dx2y2   :     0.019898
      dxy     :     0.061240
      f0      :     0.004350  f :     0.024534
      f+1     :     0.002323
      f-1     :     0.004096
      f+2     :     0.002421
      f-2     :     0.004873
      f+3     :     0.002798
      f-3     :     0.003674

 22 H s       :     0.798217  s :     0.798217
      pz      :     0.023652  p :     0.059706
      px      :     0.018678
      py      :     0.017376

 23 O s       :     3.339672  s :     3.339672
      pz      :     1.463700  p :     4.436762
      px      :     1.470712
      py      :     1.502350
      dz2     :     0.008272  d :     0.080976
      dxz     :     0.014184
      dyz     :     0.005642
      dx2y2   :     0.028521
      dxy     :     0.024359
      f0      :     0.000468  f :     0.005816
      f+1     :     0.000808
      f-1     :     0.000197
      f+2     :     0.000764
      f-2     :     0.000223
      f+3     :     0.001569
      f-3     :     0.001786

 24 C s       :     2.740665  s :     2.740665
      pz      :     0.729126  p :     2.645311
      px      :     0.930708
      py      :     0.985476
      dz2     :     0.067928  d :     0.981015
      dxz     :     0.205492
      dyz     :     0.093140
      dx2y2   :     0.328765
      dxy     :     0.285689
      f0      :     0.009837  f :     0.162603
      f+1     :     0.014186
      f-1     :     0.006626
      f+2     :     0.015255
      f-2     :     0.024395
      f+3     :     0.050541
      f-3     :     0.041762

 25 O s       :     3.339853  s :     3.339853
      pz      :     1.464685  p :     4.436155
      px      :     1.544636
      py      :     1.426834
      dz2     :     0.008289  d :     0.080907
      dxz     :     0.008721
      dyz     :     0.010621
      dx2y2   :     0.025403
      dxy     :     0.027873
      f0      :     0.000458  f :     0.005814
      f+1     :     0.000550
      f-1     :     0.000479
      f+2     :     0.000237
      f-2     :     0.000680
      f+3     :     0.001872
      f-3     :     0.001538

 26 C s       :     2.837358  s :     2.837358
      pz      :     1.066720  p :     3.150194
      px      :     1.067706
      py      :     1.015767
      dz2     :     0.030965  d :     0.228821
      dxz     :     0.035677
      dyz     :     0.052154
      dx2y2   :     0.057853
      dxy     :     0.052170
      f0      :     0.003448  f :     0.024592
      f+1     :     0.000656
      f-1     :     0.004472
      f+2     :     0.003433
      f-2     :     0.002284
      f+3     :     0.005137
      f-3     :     0.005161

 27 H s       :     0.797879  s :     0.797879
      pz      :     0.030986  p :     0.059585
      px      :     0.012972
      py      :     0.015627

 28 H s       :     0.803153  s :     0.803153
      pz      :     0.017652  p :     0.059729
      px      :     0.025976
      py      :     0.016101

 29 H s       :     0.803587  s :     0.803587
      pz      :     0.018285  p :     0.059729
      px      :     0.030205
      py      :     0.011239



                      *****************************
                      * MAYER POPULATION ANALYSIS *
                      *****************************

  NA   - Mulliken gross atomic population
  ZA   - Total nuclear charge
  QA   - Mulliken gross atomic charge
  VA   - Mayer's total valence
  BVA  - Mayer's bonded valence
  FA   - Mayer's free valence

  ATOM       NA         ZA         QA         VA         BVA        FA
  0 Pd    17.5000    18.0000     0.5000     2.4632     2.4632     0.0000
  1 O      8.4113     8.0000    -0.4113     2.0925     2.0925    -0.0000
  2 O      8.4109     8.0000    -0.4109     2.0967     2.0967     0.0000
  3 C      5.5149     6.0000     0.4851     3.9752     3.9752     0.0000
  4 C      6.3400     6.0000    -0.3400     3.9132     3.9132     0.0000
  5 H      0.8549     1.0000     0.1451     0.9746     0.9746     0.0000
  6 H      0.8548     1.0000     0.1452     0.9750     0.9750     0.0000
  7 H      0.8666     1.0000     0.1334     0.9727     0.9727     0.0000
  8 O      8.3878     8.0000    -0.3878     2.1023     2.1023    -0.0000
  9 C      5.5308     6.0000     0.4692     3.8631     3.8631    -0.0000
 10 O      8.3882     8.0000    -0.3882     2.1065     2.1065    -0.0000
 11 C      6.3721     6.0000    -0.3721     3.9377     3.9377    -0.0000
 12 H      0.8513     1.0000     0.1487     0.9737     0.9737    -0.0000
 13 H      0.8654     1.0000     0.1346     0.9726     0.9726    -0.0000
 14 H      0.8511     1.0000     0.1489     0.9744     0.9744    -0.0000
 15 O      8.3884     8.0000    -0.3884     2.1069     2.1069    -0.0000
 16 Pd    17.4999    18.0000     0.5001     2.4645     2.4645     0.0000
 17 O      8.3875     8.0000    -0.3875     2.1019     2.1019     0.0000
 18 C      5.5309     6.0000     0.4691     3.8638     3.8638     0.0000
 19 H      0.8511     1.0000     0.1489     0.9745     0.9745    -0.0000
 20 H      0.8654     1.0000     0.1346     0.9727     0.9727    -0.0000
 21 C      6.3720     6.0000    -0.3720     3.9375     3.9375    -0.0000
 22 H      0.8514     1.0000     0.1486     0.9736     0.9736     0.0000
 23 O      8.4117     8.0000    -0.4117     2.0926     2.0926    -0.0000
 24 C      5.5146     6.0000     0.4854     3.9748     3.9748    -0.0000
 25 O      8.4107     8.0000    -0.4107     2.0961     2.0961    -0.0000
 26 C      6.3402     6.0000    -0.3402     3.9131     3.9131    -0.0000
 27 H      0.8666     1.0000     0.1334     0.9727     0.9727     0.0000
 28 H      0.8547     1.0000     0.1453     0.9746     0.9746    -0.0000
 29 H      0.8547     1.0000     0.1453     0.9749     0.9749    -0.0000

  Mayer bond orders larger than 0.100000
B(  0-Pd,  1-O ) :   0.4760 B(  0-Pd,  8-O ) :   0.5397 B(  0-Pd, 10-O ) :   0.5405 
B(  0-Pd, 16-Pd) :   0.2415 B(  0-Pd, 25-O ) :   0.4762 B(  1-O ,  3-C ) :   1.4522 
B(  2-O ,  3-C ) :   1.4546 B(  2-O , 16-Pd) :   0.4764 B(  3-C ,  4-C ) :   1.0177 
B(  4-C ,  5-H ) :   0.9635 B(  4-C ,  6-H ) :   0.9653 B(  4-C ,  7-H ) :   0.9359 
B(  8-O ,  9-C ) :   1.3892 B(  9-C , 10-O ) :   1.3901 B(  9-C , 11-C ) :   1.0305 
B( 11-C , 12-H ) :   0.9600 B( 11-C , 13-H ) :   0.9366 B( 11-C , 14-H ) :   0.9639 
B( 15-O , 16-Pd) :   0.5398 B( 15-O , 18-C ) :   1.3913 B( 16-Pd, 17-O ) :   0.5401 
B( 16-Pd, 23-O ) :   0.4764 B( 17-O , 18-C ) :   1.3887 B( 18-C , 21-C ) :   1.0306 
B( 19-H , 21-C ) :   0.9643 B( 20-H , 21-C ) :   0.9367 B( 21-C , 22-H ) :   0.9595 
B( 23-O , 24-C ) :   1.4519 B( 24-C , 25-O ) :   1.4546 B( 24-C , 26-C ) :   1.0176 
B( 26-C , 27-H ) :   0.9359 B( 26-C , 28-H ) :   0.9639 B( 26-C , 29-H ) :   0.9649 


-------
TIMINGS
-------

Total SCF time: 0 days 0 hours 2 min 56 sec 

Total time                  ....     176.347 sec
Sum of individual times     ....     173.391 sec  ( 98.3%)

SCF preparation             ....       2.393 sec  (  1.4%)
Fock matrix formation       ....     130.147 sec  ( 73.8%)
  Startup                   ....       5.046 sec  (  3.9% of F)
  Split-RI-J                ....      20.036 sec  ( 15.4% of F)
  Chain of spheres X        ....      66.033 sec  ( 50.7% of F)
  XC integration            ....      27.835 sec  ( 21.4% of F)
    XC Preparation          ....       0.000 sec  (  0.0% of XC)
    Basis function eval.    ....       2.824 sec  ( 10.1% of XC)
    Density eval.           ....       6.654 sec  ( 23.9% of XC)
    XC-Functional eval.     ....       0.679 sec  (  2.4% of XC)
    XC-Potential eval.      ....       6.480 sec  ( 23.3% of XC)
Diagonalization             ....       0.000 sec  (  0.0%)
Density matrix formation    ....      10.474 sec  (  5.9%)
Total Energy calculation    ....       3.936 sec  (  2.2%)
Population analysis         ....       0.835 sec  (  0.5%)
Orbital Transformation      ....       1.035 sec  (  0.6%)
Orbital Orthonormalization  ....       0.000 sec  (  0.0%)
DIIS solution               ....      21.844 sec  ( 12.4%)
SOSCF solution              ....       2.727 sec  (  1.5%)
Finished LeanSCF after 176.8 sec

Maximum memory used throughout the entire LEANSCF-calculation: 79.0 MB


-------------------------------------------------------------------------------
                          DFT DISPERSION CORRECTION                            
                                                                               
                              DFTD3 V3.1  Rev 1                                
                          USING Becke-Johnson damping                          
-------------------------------------------------------------------------------
The TPSSH functional is recognized
Active option DFTDOPT                   ...         4   

molecular C6(AA) [au] = 13175.718293 


            DFT-D V3
 parameters
 s6 scaling factor         :     1.0000 
 a1 scaling factor         :     0.4529 
 s8 scaling factor         :     2.2382 
 a2 scaling factor         :     4.6550 
 ad hoc parameters k1-k3   :    16.0000     1.3333    -4.0000 

 Edisp/kcal,au: -26.259934533755  -0.041847864961 
 E6   /kcal   : -11.469771304 
 E8   /kcal   : -14.790163230 
 % E8         :  56.322163374 

-------------------------   ----------------
Dispersion correction           -0.041847865
-------------------------   ----------------


-------------------------   --------------------
FINAL SINGLE POINT ENERGY     -1170.226393803365
-------------------------   --------------------



           ************************************************************
           *        Program running with 16 parallel MPI-processes    *
           *              working on a common directory               *
           ************************************************************

------------------------------------------------------------------------------
                              ORCA PROPERTY CALCULATIONS
------------------------------------------------------------------------------

GBWName                                 ... CS_PdOAc_002_sp_01.gbw
Number of atoms                         ...     30
Number of basis functions               ...    648
Max core memory                         ...   3500 MB

Electric properties:
Dipole moment                           ... YES
Quadrupole moment                       ...  NO
Static polarizability (Dipole/Dipole)   ...  NO
Static polarizability (Dipole/Quad.)    ...  NO
Static polarizability (Quad./Quad.)     ...  NO
Static polarizability (Velocity)        ...  NO

Atomic electric properties:
Dipole moment                           ...  NO
Quadrupole moment                       ...  NO
Static polarizability                   ...  NO

Choice of electric origin               ... Center of mass
Position of electric origin             ...     0.937214     2.331042    -0.201412

General magnetic properties:
Magnetizability                         ...  NO

EPR properties:
g-Tensor (aka g-matrix)                 ...  NO
Zero-Field splitting spin-orbit         ...  NO
Zero-field splitting spin-spin          ...  NO
Hyperfine couplings                     ...  NO (   0 nuclei)
Quadrupole couplings                    ...  NO (   0 nuclei)
Contact density                         ...  NO (   0 nuclei)

NMR properties:
Chemical shifts                         ...  NO (   0 nuclei)
Spin-rotation constants                 ...  NO (   0 nuclei)
Spin-spin couplings                     ...  NO (   0 nuclei,    0 pairs)

Choice of magnetic origin               ... GIAO
Position of magnetic origin             ...     0.000000     0.000000     0.000000

Properties with geometric perturbations:
SCF Hessian                             ...  NO
IR spectrum                             ...  NO
VCD spectrum                            ...  NO
X-ray spectroscopy properties:
SCF XES/XAS/RIXS spectra                ...  NO


-------------
DIPOLE MOMENT
-------------

Method             : SCF
Type of density    : Electron Density
Multiplicity       :   1
Irrep              :   0
Energy             : -1170.1845459384032893 Eh
Relativity type    : 
Basis              : AO
                                X                 Y                 Z
Electronic contribution:     -3.823173980     -15.813330019     -12.900887136
Nuclear contribution   :      3.918704490      16.204977420      13.222421659
                        -----------------------------------------
Total Dipole Moment    :      0.095530510       0.391647402       0.321534523
                        -----------------------------------------
Magnitude (a.u.)       :      0.515653193
Magnitude (Debye)      :      1.310686253



--------------------
Rotational spectrum 
--------------------
 
Rotational constants in cm-1:             0.010011             0.009691             0.007268 
Rotational constants in MHz :           300.130587           290.515305           217.877806 

Dipole components along the rotational axes: 
x,y,z [a.u.] :     0.515460     0.013485     0.004227 
x,y,z [Debye]:     1.310194     0.034276     0.010744 

 

Dipole moment calculation done in   0.2 sec 

Maximum memory used throughout the entire PROP-calculation: 42.3 MB

--------------------------------
SUGGESTED CITATIONS FOR THIS RUN
--------------------------------

Below you find a list of papers that are relevant to this ORCA run
We neither can nor want to force you to cite these papers, but we appreciate if you do
You receive ORCA, which is the product of decades of hard work by many enthusiastic individuals, for free
The only thing we kindly ask in return is that you cite our papers,
We deeply appreciate it, if you show your appreciation for ORCA by not just citing the generic ORCA reference.

Please note that relegating all ORCA citations to the supporting information does *not* help us.
SI sections are not indexed - citations you put there will not count into any citation statistics
But we need these citations in order to attract the funding resources that allow us to do what we are doing

Therefore, if you are a happy ORCA user, please consider citing a few of the papers listed below in the main body of your paper

In addition to the list printed below, the program has created the file CS_PdOAc_002_sp_01.bibtex that contains the list in bibtex format
You can import this file easily into all common literature databanks and citation aid programs


List of essential papers. We consider these as the minimum necessary citations

  1. Neese,F.
     Software update: the ORCA program system, version 5.0
     WIRES Comput. Molec. Sci., 2022 12(1)e1606
     doi.org/10.1002/wcms.1606

List of papers to cite with high priority. The work reported in these papers was absolutely
necessary for this run to complete.
Our perspective: the developers of density functionals and basis sets usually get cited in chemistry papers
Good! But without the algorithms to do something with them, the functionals or basis sets would not do anything.
Hence, in our opinion, the algorithm design and method developments papers are equally worthy of getting cited

  1. Neese,F.
     An improvement of the resolution of the identity approximation for the formation of the Coulomb matrix
     J. Comp. Chem., 2003 24(14)1740-1747
     doi.org/10.1002/jcc.10318
  2. Neese,F.; Wennmohs,F.; Hansen,A.; Becker,U.
     Efficient, approximate and parallel Hartree-Fock and hybrid DFT calculations. A 'chain-of-spheres' algorithm for the Hartree-Fock exchange
     Chem. Phys., 2009 356(1-3)98-109
     doi.org/10.1016/j.chemphys.2008.10.036
  3. Helmich-Paris,B.; de Souza,B.; Neese,F.; Izsák,R.
     An improved chain of spheres for exchange algorithm
     J. Chem. Phys., 2021 155 104109
     doi.org/doi: 10.1063/5.0058766.
  4. Neese,F.
     The SHARK Integral Generation and Digestion System
     J. Comp. Chem., 2022  1-16
     doi.org/10.1002/jcc.26942
  5. Grimme,S.; Antony,J.; Ehrlich,S.; Krieg,H.
     A consistent and accurate ab initio parametrization of density functional dispersion correction (DFT-D) for the 94 elements H-Pu
     J. Chem. Phys., 2010 132 154104-XXXX
     doi.org/10.1063/1.3382344
  6. Grimme,S.; Ehrlich,S.; Goerigk,L.
     Effect of the damping function in dispersion corrected density functional theory
     J. Comput. Chem., 2011 32(7)1456-1465
     doi.org/10.1002/jcc.21759

List of suggested additional citations. These are papers that are important in the 'surrounding' of 
of this run, or papers that preceded the highly important papers. If you like your results we are grateful for a citation.

  1. Izsak,R.; Neese,F.
     An overlap fitted chain of spheres exchange method
     J. Chem. Phys., 2011 135 144105
     doi.org/10.1063/1.3646921
  2. Izsak,R.; Hansen,A.; Neese,F.
     The resolution of identity and chain of spheres approximations for the LPNO-CCSD singles Fock term
     Molec. Phys., 2012 110 2413-2417
     doi.org/10.1080/00268976.2012.687466
  3. Neese,F.
     The ORCA program system
     WIRES Comput. Molec. Sci., 2012 2(1)73-78
     doi.org/10.1002/wcms.81
  4. Izsak,R.; Neese,F.; Klopper,W.
     Robust fitting techniques in the chain of spheres approximation to the Fock exchange: The role of the complementary space
     J. Chem. Phys., 2013 139 
     doi.org/10.1063/1.4819264
  5. Neese,F.
     Software update: the ORCA program system, version 4.0
     WIRES Comput. Molec. Sci., 2018 8(1)1-6
     doi.org/10.1002/wcms.1327
  6. Neese,F.; Wennmohs,F.; Becker,U.; Riplinger,C.
     The ORCA quantum chemistry program package
     J. Chem. Phys., 2020 152 Art. No. L224108
     doi.org/10.1063/5.0004608

List of optional additional citations

  1. Neese,F.
     Approximate second-order SCF convergence for spin unrestricted wavefunctions
     Chem. Phys. Lett., 2000 325(1-3)93-98
     doi.org/10.1016/s0009-2614(00)00662-x

Timings for individual modules:

Sum of individual times          ...      205.021 sec (=   3.417 min)
Startup calculation              ...       10.563 sec (=   0.176 min)   5.2 %
SCF iterations                   ...      192.170 sec (=   3.203 min)  93.7 %
Property calculations            ...        2.288 sec (=   0.038 min)   1.1 %
                             ****ORCA TERMINATED NORMALLY****
TOTAL RUN TIME: 0 days 0 hours 3 minutes 28 seconds 383 msec
