
                                 *****************
                                 * O   R   C   A *
                                 *****************

                                            #,                                       
                                            ###                                      
                                            ####                                     
                                            #####                                    
                                            ######                                   
                                           ########,                                 
                                     ,,################,,,,,                         
                               ,,#################################,,                 
                          ,,##########################################,,             
                       ,#########################################, ''#####,          
                    ,#############################################,,   '####,        
                  ,##################################################,,,,####,       
                ,###########''''           ''''###############################       
              ,#####''   ,,,,##########,,,,          '''####'''          '####       
            ,##' ,,,,###########################,,,                        '##       
           ' ,,###''''                  '''############,,,                           
         ,,##''                                '''############,,,,        ,,,,,,###''
      ,#''                                            '''#######################'''  
     '                                                          ''''####''''         
             ,#######,   #######,   ,#######,      ##                                
            ,#'     '#,  ##    ##  ,#'     '#,    #''#        ,####,   ,####,        
            ##       ##  ##   ,#'  ##            #'  '#       #'       #'  '#        
            ##       ##  #######   ##           ,######,      #####,   #    #        
            '#,     ,#'  ##    ##  '#,     ,#' ,#      #,     #,   #   #,  ,#        
             '#######'   ##     ##  '#######'  #'      '#     '####' # '####'        



                #########################################################
                #                        -***-                          #
                #          Department of theory and spectroscopy        #
                #                                                       #
                #                      Frank Neese                      #
                #                                                       #
                #     Directorship, Architecture, Infrastructure        #
                #                    SHARK, DRIVERS                     #
                #        Core code/Algorithms in most modules           #
                #                                                       #
                #        Max Planck Institute fuer Kohlenforschung      #
                #                Kaiser Wilhelm Platz 1                 #
                #                 D-45470 Muelheim/Ruhr                 #
                #                      Germany                          #
                #                                                       #
                #                  All rights reserved                  #
                #                        -***-                          #
                #########################################################


                         Program Version 6.0.0  -   RELEASE  -


 With contributions from (in alphabetic order):
   Daniel Aravena         : Magnetic Suceptibility
   Michael Atanasov       : Ab Initio Ligand Field Theory (pilot matlab implementation)
   Alexander A. Auer      : GIAO ZORA, VPT2 properties, NMR spectrum
   Ute Becker             : All parallelization in ORCA, NUMFREQ, NUMCALC
   Giovanni Bistoni       : ED, misc. LED, open-shell LED, HFLD
   Martin Brehm           : Molecular dynamics
   Dmytro Bykov           : pre 5.0 version of the SCF Hessian
   Marcos Casanova-Páez   : Triplet and SCS-CIS(D). UHF-(DLPNO)-IP/EA/STEOM-CCSD. UHF-CVS-IP/STEOM-CCSD
   Vijay G. Chilkuri      : MRCI spin determinant printing, contributions to CSF-ICE
   Pauline Colinet        : FMM embedding
   Dipayan Datta          : RHF DLPNO-CCSD density
   Achintya Kumar Dutta   : EOM-CC, STEOM-CC
   Nicolas Foglia         : Exact transition moments, OPA infrastructure, MCD improvements
   Dmitry Ganyushin       : Spin-Orbit,Spin-Spin,Magnetic field MRCI
   Miquel Garcia          : C-PCM and meta-GGA Hessian, CCSD/C-PCM, Gaussian charge scheme
   Tiago L. C. Gouveia    : GS-ROHF, GS-ROCIS
   Yang Guo               : DLPNO-NEVPT2, F12-NEVPT2, CIM, IAO-localization
   Andreas Hansen         : Spin unrestricted coupled pair/coupled cluster methods
   Ingolf Harden          : AUTO-CI MPn and infrastructure 
   Benjamin Helmich-Paris : MC-RPA, TRAH-(SCF,CASSCF), AVAS, COSX integrals, SCF dyn. polar.
   Lee Huntington         : MR-EOM, pCC
   Robert Izsak           : Overlap fitted RIJCOSX, COSX-SCS-MP3, EOM
   Riya Kayal             : Wick's Theorem for AUTO-CI, AUTO-CI UHF-CCSDT
   Emily Kempfer          : AUTO-CI, RHF CISDT and CCSDT
   Christian Kollmar      : KDIIS, OOCD, Brueckner-CCSD(T), CCSD density, CASPT2, CASPT2-K, improved NEVPT2
   Axel Koslowski         : Symmetry handling
   Simone Kossmann        : Meta GGA functionals, TD-DFT gradient, OOMP2, (MP2 Hessian; deprecated post 5.0)
   Lucas Lang             : DCDCAS
   Marvin Lechner         : AUTO-CI (C++ implementation), FIC-MRCC
   Spencer Leger          : CASSCF response
   Dagmar Lenk            : GEPOL surface, SMD, ORCA-2-JSON
   Dimitrios Liakos       : Extrapolation schemes; Compound Job, initial MDCI parallelization
   Dimitrios Manganas     : Further ROCIS development; embedding schemes. LFT, Crystal Embedding
   Dimitrios Pantazis     : SARC Basis sets
   Anastasios Papadopoulos: AUTO-CI, single reference methods and gradients
   Taras Petrenko         : pre 6.0 DFT Hessian and TD-DFT gradient, (ASA, deprecated), ECA, 1-Electron XAS/XES, NRVS
   Peter Pinski           : DLPNO-MP2, DLPNO-MP2 Gradient
   Christoph Reimann      : Effective Core Potentials
   Marius Retegan         : Local ZFS, SOC
   Christoph Riplinger    : Optimizer, TS searches, QM/MM, DLPNO-CCSD(T), (RO)-DLPNO pert. Triples
   Michael Roemelt        : Original ROCIS implementation
   Masaaki Saitow         : Open-shell DLPNO-CCSD energy and density
   Barbara Sandhoefer     : DKH picture change effects
   Kantharuban Sivalingam : CASSCF convergence/infrastructure, NEVPT2 and variants, FIC-MRCI
   Bernardo de Souza      : ESD, SOC TD-DFT
   Georgi Stoychev        : AutoAux, RI-MP2 NMR, DLPNO-MP2 response, X2C
   Van Anh Tran           : RI-MP2 g-tensors
   Willem Van den Heuvel  : Paramagnetic NMR
   Zikuan Wang            : NOTCH, Electric field optimization 
   Frank Wennmohs         : Technical directorship and infrastructure
   Hang Xu                : AUTO-CI-Response properties 


 We gratefully acknowledge several colleagues who have allowed us to
 interface, adapt or use parts of their codes:
   Stefan Grimme, W. Hujo, H. Kruse, P. Pracht,  : VdW corrections, initial TS optimization,
                  C. Bannwarth, S. Ehlert,         DFT functionals, gCP, sTDA/sTD-DF
                  L. Wittmann, M. Mueller
   Ed Valeev, F. Pavosevic, A. Kumar             : LibInt (2-el integral package), F12 methods
   Garnet Chan, S. Sharma, J. Yang, R. Olivares  : DMRG
   Ulf Ekstrom                                   : XCFun DFT Library
   Mihaly Kallay                                 : mrcc  (arbitrary order and MRCC methods)
   Frank Weinhold                                : gennbo (NPA and NBO analysis)
   Simon Mueller                                 : openCOSMO-RS
   Christopher J. Cramer and Donald G. Truhlar   : smd solvation model
   Lars Goerigk                                  : TD-DFT with DH, B97 family of functionals
   V. Asgeirsson, H. Jonsson                     : NEB implementation
   FAccTs GmbH                                   : IRC, NEB, NEB-TS, DLPNO-Multilevel, CI-OPT
                                                   MM, QMMM, 2- and 3-layer-ONIOM, Crystal-QMMM,
                                                   LR-CPCM, SF, NACMEs, symmetry and pop. for TD-DFT,
                                                   nearIR, NL-DFT gradient (VV10), updates on ESD,
                                                   ML-optimized integration grids, MBIS, APM,
                                                   GOAT, DOCKER, SOLVATOR, interface openCOSMO-RS
   S Lehtola, MJT Oliveira, MAL Marques          : LibXC Library
   Liviu Ungur et al                             : ANISO software


 Your calculation uses the libint2 library for the computation of 2-el integrals
 For citations please refer to: http://libint.valeyev.net

 Your ORCA version has been built with support for libXC version: 6.2.2
 For citations please refer to: https://libxc.gitlab.io

 This ORCA versions uses:
   CBLAS   interface :  Fast vector & matrix operations
   LAPACKE interface :  Fast linear algebra routines
   SCALAPACK package :  Parallel linear algebra routines
   Shared memory     :  Shared parallel matrices
   BLAS/LAPACK       :  OpenBLAS 0.3.27  USE64BITINT DYNAMIC_ARCH NO_AFFINITY Sandybridge SINGLE_THREADED
        Core in use  :  Sandybridge
   Copyright (c) 2011-2014, The OpenBLAS Project


NOTE: MaxCore=3500 MB was set to SCF,MP2,MDCI,CIPSI,MRCI and CIS
      => If you want to overwrite this, your respective input block should be placed after the MaxCore statement
Your calculation utilizes the atom-pairwise dispersion correction
with the Becke-Johnson damping scheme (D3BJ)


Warning: RI is on but no J-basis has been assigned. Assigning Def2/J (nothing to worry about!)
================================================================================

cite the ECPs for Pd [Def2-ECP] as follows:
Ce-Yb(ecp-28): M. Dolg, H. Stoll, H.Preuss, J. Chem. Phys., 1989, 90, 1730-1734.
Y-Cd(ecp-28), Hf-Hg(ecp-46): D. Andrae,U. Haeussermann, M. Dolg, H. Stoll, H. Preuss, Theor. Chim. Acta, 1990, 77, 123-141.
In-Sb(ecp-28), Tl-Bi(ecp-46): B. Metz, H. Stoll, M. Dolg, J. Chem. Phys., 2000, 113, 2563-2569.
Te-Xe(ecp-28), Po-Rn(ecp-46): K. A. Peterson, D. Figgen, E. Goll, H. Stoll, M. Dolg, J. Chem. Phys., 2003, 119, 11113-11123.
Rb(ecp-28), Cs(ecp-46): T. Leininger, A. Nicklass, W. Kuechle, H. Stoll, M. Dolg, A. Bergner, Chem. Phys. Lett., 1996, 255, 274-280.
Sr(ecp-28), Ba(ecp-46): M. Kaupp, P. V. Schleyer, H. Stoll and H. Preuss, J. Chem. Phys., 1991, 94, 1360-1366.
La(ecp-46): M. Dolg, H. Stoll, A. Savin, H. Preuss, Theor. Chim. Acta, 1989, 75, 173-194.
Lu(ecp-28): X. Cao, M. Dolg, J. Chem. Phys., 2001, 115, 7348-7355.

ECP parameters for Pd [Def2-ECP] have been obtained from:
TURBOMOLE (7.0.2)

----- Orbital basis set information -----
Your calculation utilizes the basis: def2-SV(P)
   F. Weigend and R. Ahlrichs, Phys. Chem. Chem. Phys. 7, 3297 (2005).

----- AuxJ basis set information -----
Your calculation utilizes the auxiliary basis: def2/J
   F. Weigend, Phys. Chem. Chem. Phys. 8, 1057 (2006).

================================================================================
                                        WARNINGS
                       Please study these warnings very carefully!
================================================================================


================================================================================
                                       INPUT FILE
================================================================================
NAME = CS_PdOAc_001_freq_01.inp
|  1> !PBE0 def2-SV(p) freq d3 TightSCF SlowConv RIJCOSX defgrid2
|  2> 
|  3> %pal
|  4> nprocs 16
|  5> nprocs_group 2
|  6> end
|  7> 
|  8> %scf
|  9> MaxIter 1500
| 10> end
| 11> 
| 12> %maxcore 3500
| 13> 
| 14>  
| 15> 
| 16> * xyz 0 1
| 17>   Pd         -0.70729732359429     -1.69471520698101     -0.00411741820118
| 18>   Pd         -1.11683962042653      1.46234841125249     -0.01199162650670
| 19>   Pd          1.82153224613321      0.23638840943721      0.01149599704147
| 20>   O           0.65717020631612     -2.54430691430186      1.22342692467684
| 21>   O           0.30208044667745     -2.27040351328351     -1.65079825387713
| 22>   O          -1.82659447994299     -1.38351962474004      1.64325741771439
| 23>   O          -2.27157849267903     -1.31796320025989     -1.22974419824762
| 24>   O          -2.10146057413708      0.88012719115423     -1.67106773781384
| 25>   O           0.00410206993513      2.62967709997367     -1.22530713419033
| 26>   O          -2.54701322417182      0.69898345219958      1.19649257183493
| 27>   O          -0.30635482903907      2.27184095767005      1.64687421948762
| 28>   O           1.86249152561263      1.85151702320007      1.22806540163286
| 29>   O           2.09794236418462     -0.87676297014425      1.66881788581427
| 30>   O           2.28691360022264     -1.31562606175175     -1.19938062891759
| 31>   O           1.83064850766278      1.38655863591844     -1.64342664875516
| 32>   C          -2.54947741577062     -0.27692201146875     -1.87616601959935
| 33>   C          -2.55728302600413     -0.37939237868914      1.84138099270396
| 34>   C           1.59116634792032     -2.00967203446952      1.87198392078046
| 35>   C           1.53002353585967     -2.08221996642852     -1.84627640166011
| 36>   C           1.05385476876182      2.35201448781485     -1.85757755945378
| 37>   C           0.92610165556911      2.40001095882297      1.86150099178292
| 38>   C          -3.50190662573245     -0.44465889520679     -3.02919546851225
| 39>   H          -3.89516668402246      0.52750343055755     -3.35788951575189
| 40>   H          -2.95896166644210     -0.92174980515021     -3.86340379777296
| 41>   H          -4.32164188118390     -1.11972030495782     -2.73856445661204
| 42>   C           1.39888310750764      3.26247798673059     -3.00521028946863
| 43>   H           1.21647777381569      4.30916199917301     -2.71670989400076
| 44>   H           2.44261533013324      3.12050655338611     -3.31856742013713
| 45>   H           0.72743740128005      3.02907808519091     -3.84958061083043
| 46>   C           2.16241922653299     -2.83318711430041     -2.98680361093246
| 47>   H           2.31465018512874     -2.13135172379473     -3.82498238147898
| 48>   H           3.15303791190011     -3.20490916968796     -2.68231008942760
| 49>   H           1.51957679259546     -3.66159894229901     -3.31581878271186
| 50>   C           2.13909525985761     -2.80285286274312      3.02759813974084
| 51>   H           2.19324921785900     -3.86832977489665      2.75663534263119
| 52>   H           3.12608947347902     -2.42490950306132      3.32925297511617
| 53>   H           1.43892999026856     -2.70945503981504      3.87594678327563
| 54>   C          -3.53140387701817     -0.46122903773955      2.98559055861895
| 55>   H          -3.69708206400159     -1.50555330804548      3.28538623648237
| 56>   H          -3.11310178068615      0.10061419630771      3.83878425744490
| 57>   H          -4.47985980501089      0.02077819409732      2.70312126528622
| 58>   C           1.32826969647438      3.28245440536012      3.01231179070604
| 59>   H           1.60631546728150      2.63794840594356      3.86419305408477
| 60>   H           2.21660700098280      3.87175359322641      2.73786782321844
| 61>   H           0.49951125991094      3.94017188679948      3.30968039478457
| 62> *
| 63> 
| 64>                          ****END OF INPUT****
================================================================================

                       ****************************
                       * Single Point Calculation *
                       ****************************

---------------------------------
CARTESIAN COORDINATES (ANGSTROEM)
---------------------------------
  Pd    -0.707297   -1.694715   -0.004117
  Pd    -1.116840    1.462348   -0.011992
  Pd     1.821532    0.236388    0.011496
  O      0.657170   -2.544307    1.223427
  O      0.302080   -2.270404   -1.650798
  O     -1.826594   -1.383520    1.643257
  O     -2.271578   -1.317963   -1.229744
  O     -2.101461    0.880127   -1.671068
  O      0.004102    2.629677   -1.225307
  O     -2.547013    0.698983    1.196493
  O     -0.306355    2.271841    1.646874
  O      1.862492    1.851517    1.228065
  O      2.097942   -0.876763    1.668818
  O      2.286914   -1.315626   -1.199381
  O      1.830649    1.386559   -1.643427
  C     -2.549477   -0.276922   -1.876166
  C     -2.557283   -0.379392    1.841381
  C      1.591166   -2.009672    1.871984
  C      1.530024   -2.082220   -1.846276
  C      1.053855    2.352014   -1.857578
  C      0.926102    2.400011    1.861501
  C     -3.501907   -0.444659   -3.029195
  H     -3.895167    0.527503   -3.357890
  H     -2.958962   -0.921750   -3.863404
  H     -4.321642   -1.119720   -2.738564
  C      1.398883    3.262478   -3.005210
  H      1.216478    4.309162   -2.716710
  H      2.442615    3.120507   -3.318567
  H      0.727437    3.029078   -3.849581
  C      2.162419   -2.833187   -2.986804
  H      2.314650   -2.131352   -3.824982
  H      3.153038   -3.204909   -2.682310
  H      1.519577   -3.661599   -3.315819
  C      2.139095   -2.802853    3.027598
  H      2.193249   -3.868330    2.756635
  H      3.126089   -2.424910    3.329253
  H      1.438930   -2.709455    3.875947
  C     -3.531404   -0.461229    2.985591
  H     -3.697082   -1.505553    3.285386
  H     -3.113102    0.100614    3.838784
  H     -4.479860    0.020778    2.703121
  C      1.328270    3.282454    3.012312
  H      1.606315    2.637948    3.864193
  H      2.216607    3.871754    2.737868
  H      0.499511    3.940172    3.309680

----------------------------
CARTESIAN COORDINATES (A.U.)
----------------------------
  NO LB      ZA    FRAG     MASS         X           Y           Z
   0 Pd   18.0000*   0   106.400   -1.336598   -3.202548   -0.007781
   1 Pd   18.0000*   0   106.400   -2.110521    2.763438   -0.022661
   2 Pd   18.0000*   0   106.400    3.442197    0.446709    0.021724
   3 O     8.0000    0    15.999    1.241872   -4.808043    2.311942
   4 O     8.0000    0    15.999    0.570849   -4.290441   -3.119557
   5 O     8.0000    0    15.999   -3.451763   -2.614473    3.105306
   6 O     8.0000    0    15.999   -4.292661   -2.490590   -2.323880
   7 O     8.0000    0    15.999   -3.971185    1.663199   -3.157860
   8 O     8.0000    0    15.999    0.007752    4.969370   -2.315495
   9 O     8.0000    0    15.999   -4.813157    1.320887    2.261043
  10 O     8.0000    0    15.999   -0.578927    4.293157    3.112141
  11 O     8.0000    0    15.999    3.519599    3.498860    2.320707
  12 O     8.0000    0    15.999    3.964537   -1.656842    3.153609
  13 O     8.0000    0    15.999    4.321640   -2.486173   -2.266501
  14 O     8.0000    0    15.999    3.459424    2.620216   -3.105626
  15 C     6.0000    0    12.011   -4.817814   -0.523307   -3.545440
  16 C     6.0000    0    12.011   -4.832565   -0.716948    3.479706
  17 C     6.0000    0    12.011    3.006869   -3.797730    3.537537
  18 C     6.0000    0    12.011    2.891325   -3.934825   -3.488957
  19 C     6.0000    0    12.011    1.991497    4.444663   -3.510313
  20 C     6.0000    0    12.011    1.750079    4.535363    3.517727
  21 C     6.0000    0    12.011   -6.617644   -0.840284   -5.724350
  22 H     1.0000    0     1.008   -7.360798    0.996837   -6.345492
  23 H     1.0000    0     1.008   -5.591627   -1.741855   -7.300775
  24 H     1.0000    0     1.008   -8.166720   -2.115965   -5.175137
  25 C     6.0000    0    12.011    2.643506    6.165190   -5.679024
  26 H     1.0000    0     1.008    2.298810    8.143136   -5.133838
  27 H     1.0000    0     1.008    4.615874    5.896903   -6.271184
  28 H     1.0000    0     1.008    1.374657    5.724128   -7.274653
  29 C     6.0000    0    12.011    4.086380   -5.353948   -5.644241
  30 H     1.0000    0     1.008    4.374055   -4.027671   -7.228169
  31 H     1.0000    0     1.008    5.958378   -6.056401   -5.068831
  32 H     1.0000    0     1.008    2.871584   -6.919419   -6.265989
  33 C     6.0000    0    12.011    4.042304   -5.296624    5.721331
  34 H     1.0000    0     1.008    4.144640   -7.310084    5.209286
  35 H     1.0000    0     1.008    5.907453   -4.582415    6.291376
  36 H     1.0000    0     1.008    2.719184   -5.120128    7.324478
  37 C     6.0000    0    12.011   -6.673386   -0.871597    5.641949
  38 H     1.0000    0     1.008   -6.986473   -2.845083    6.208480
  39 H     1.0000    0     1.008   -5.882910    0.190133    7.254251
  40 H     1.0000    0     1.008   -8.465708    0.039265    5.108159
  41 C     6.0000    0    12.011    2.510066    6.202940    5.692444
  42 H     1.0000    0     1.008    3.035496    4.985000    7.302267
  43 H     1.0000    0     1.008    4.188780    7.316554    5.173820
  44 H     1.0000    0     1.008    0.943939    7.445846    6.254390
* core charge reduced due to ECP

--------------------------------
INTERNAL COORDINATES (ANGSTROEM)
--------------------------------
 Pd     0   0   0     0.000000000000     0.00000000     0.00000000
 Pd     1   0   0     3.183525967481     0.00000000     0.00000000
 Pd     1   2   0     3.181883710761    60.02594775     0.00000000
 O      1   2   3     2.022484319608   120.32289177    44.15713502
 O      1   2   3     2.015395316982   110.22327694   298.94356873
 O      1   2   3     2.015815632597    77.14390250   122.57955944
 O      1   2   3     2.022641504194    73.39874504   218.76012831
 O      2   1   3     2.015190689421    77.19563382   122.75098424
 O      2   1   3     2.022696482888   120.16615592    44.22484380
 O      2   1   3     2.022017966093    73.44854097   218.92458113
 O      2   1   3     2.015936426275   110.14844440   299.07287859
 O      3   1   2     2.022463650541   120.24635155    44.23096099
 O      3   1   2     2.015496065546    77.16396197   122.70799941
 O      3   1   2     2.022758247248    73.39633666   218.87719105
 O      3   1   2     2.015376793475   110.23828081   299.04325353
 C      7   1   2     1.256525264105   129.57616247    25.02293112
 C     10   2   1     1.256535306645   129.53250425    25.01262590
 C      4   1   2     1.256506834227   129.49634671   345.94944640
 C     14   3   1     1.256591789330   129.61875040    24.95483582
 C      9   2   1     1.256520252741   129.59066166   345.70315684
 C     12   3   1     1.256547744021   129.54890233   345.74554477
 C     16   7   1     1.504903309922   116.21811471   160.42300880
 H     22  16   7     1.098996286514   110.91764658   164.66719571
 H     22  16   7     1.103770130859   108.41677983   284.81638812
 H     22  16   7     1.100972379782   109.71277374    41.94587775
 C     20   9   2     1.505008046622   116.20294296   160.60514448
 H     26  20   9     1.100932153153   109.71480229    41.83450746
 H     26  20   9     1.098965664511   110.91663937   164.55551643
 H     26  20   9     1.103755448479   108.41865981   284.70353357
 C     19  14   3     1.504884806839   116.19784069   160.55263924
 H     30  19  14     1.103762126328   108.43186675   284.95240124
 H     30  19  14     1.101008161141   109.69269005    42.07004496
 H     30  19  14     1.098982954781   110.93120883   164.76228722
 C     18   4   1     1.504927287925   116.27826755   160.32309813
 H     34  18   4     1.100724551792   109.81974310    39.33142823
 H     34  18   4     1.099087985811   110.88369555   162.20639352
 H     34  18   4     1.103924806793   108.33624133   282.07695182
 C     17  10   2     1.504933288181   116.24234801   160.30765154
 H     38  17  10     1.099063188201   110.89380894   162.46236011
 H     38  17  10     1.103894900413   108.34157160   282.36905979
 H     38  17  10     1.100767241774   109.80418608    39.59561842
 C     21  12   3     1.504928923365   116.25063344   160.53713110
 H     42  21  12     1.103811179887   108.36701425   283.09898522
 H     42  21  12     1.100788894698   109.81083318    40.32567845
 H     42  21  12     1.099027260016   110.87344053   163.13994010

---------------------------
INTERNAL COORDINATES (A.U.)
---------------------------
 Pd     0   0   0     0.000000000000     0.00000000     0.00000000
 Pd     1   0   0     6.015992218765     0.00000000     0.00000000
 Pd     1   2   0     6.012888803324    60.02594775     0.00000000
 O      1   2   3     3.821941474209   120.32289177    44.15713502
 O      1   2   3     3.808545200684   110.22327694   298.94356873
 O      1   2   3     3.809339482086    77.14390250   122.57955944
 O      1   2   3     3.822238510029    73.39874504   218.76012831
 O      2   1   3     3.808158510633    77.19563382   122.75098424
 O      2   1   3     3.822342404704   120.16615592    44.22484380
 O      2   1   3     3.821060193783    73.44854097   218.92458113
 O      2   1   3     3.809567749056   110.14844440   299.07287859
 O      3   1   2     3.821902415333   120.24635155    44.23096099
 O      3   1   2     3.808735587877    77.16396197   122.70799941
 O      3   1   2     3.822459122428    73.39633666   218.87719105
 O      3   1   2     3.808510196329   110.23828081   299.04325353
 C      7   1   2     2.374488629512   129.57616247    25.02293112
 C     10   2   1     2.374507607162   129.53250425    25.01262590
 C      4   1   2     2.374453802090   129.49634671   345.94944640
 C     14   3   1     2.374614343967   129.61875040    24.95483582
 C      9   2   1     2.374479159405   129.59066166   345.70315684
 C     12   3   1     2.374531110396   129.54890233   345.74554477
 C     16   7   1     2.843855113785   116.21811471   160.42300880
 H     22  16   7     2.076802003709   110.91764658   164.66719571
 H     22  16   7     2.085823262127   108.41677983   284.81638812
 H     22  16   7     2.080536278800   109.71277374    41.94587775
 C     20   9   2     2.844053037463   116.20294296   160.60514448
 H     26  20   9     2.080460261488   109.71480229    41.83450746
 H     26  20   9     2.076744136508   110.91663937   164.55551643
 H     26  20   9     2.085795516449   108.41865981   284.70353357
 C     19  14   3     2.843820148025   116.19784069   160.55263924
 H     30  19  14     2.085808135755   108.43186675   284.95240124
 H     30  19  14     2.080603895768   109.69269005    42.07004496
 H     30  19  14     2.076776810384   110.93120883   164.76228722
 C     18   4   1     2.843900425643   116.27826755   160.32309813
 H     34  18   4     2.080067951769   109.81974310    39.33142823
 H     34  18   4     2.076975290267   110.88369555   162.20639352
 H     34  18   4     2.086115557281   108.33624133   282.07695182
 C     17  10   2     2.843911764484   116.24234801   160.30765154
 H     38  17  10     2.076928429574   110.89380894   162.46236011
 H     38  17  10     2.086059042412   108.34157160   282.36905979
 H     38  17  10     2.080148624145   109.80418608    39.59561842
 C     21  12   3     2.843903516176   116.25063344   160.53713110
 H     42  21  12     2.085900833547   108.36701425   283.09898522
 H     42  21  12     2.080189542242   109.81083318    40.32567845
 H     42  21  12     2.076860535144   110.87344053   163.13994010

---------------------
BASIS SET INFORMATION
---------------------
There are 4 groups of distinct atoms

 Group   1 Type Pd  : 7s6p5d contracted to 5s3p2d pattern {31111/411/41}
 Group   2 Type O   : 7s4p1d contracted to 3s2p1d pattern {511/31/1}
 Group   3 Type C   : 7s4p1d contracted to 3s2p1d pattern {511/31/1}
 Group   4 Type H   : 4s contracted to 2s pattern {31}

Atom   0Pd   basis set group =>   1
Atom   1Pd   basis set group =>   1
Atom   2Pd   basis set group =>   1
Atom   3O    basis set group =>   2
Atom   4O    basis set group =>   2
Atom   5O    basis set group =>   2
Atom   6O    basis set group =>   2
Atom   7O    basis set group =>   2
Atom   8O    basis set group =>   2
Atom   9O    basis set group =>   2
Atom  10O    basis set group =>   2
Atom  11O    basis set group =>   2
Atom  12O    basis set group =>   2
Atom  13O    basis set group =>   2
Atom  14O    basis set group =>   2
Atom  15C    basis set group =>   3
Atom  16C    basis set group =>   3
Atom  17C    basis set group =>   3
Atom  18C    basis set group =>   3
Atom  19C    basis set group =>   3
Atom  20C    basis set group =>   3
Atom  21C    basis set group =>   3
Atom  22H    basis set group =>   4
Atom  23H    basis set group =>   4
Atom  24H    basis set group =>   4
Atom  25C    basis set group =>   3
Atom  26H    basis set group =>   4
Atom  27H    basis set group =>   4
Atom  28H    basis set group =>   4
Atom  29C    basis set group =>   3
Atom  30H    basis set group =>   4
Atom  31H    basis set group =>   4
Atom  32H    basis set group =>   4
Atom  33C    basis set group =>   3
Atom  34H    basis set group =>   4
Atom  35H    basis set group =>   4
Atom  36H    basis set group =>   4
Atom  37C    basis set group =>   3
Atom  38H    basis set group =>   4
Atom  39H    basis set group =>   4
Atom  40H    basis set group =>   4
Atom  41C    basis set group =>   3
Atom  42H    basis set group =>   4
Atom  43H    basis set group =>   4
Atom  44H    basis set group =>   4
---------------------------------
AUXILIARY/J BASIS SET INFORMATION
---------------------------------
There are 4 groups of distinct atoms

 Group   1 Type Pd  : 11s5p5d3f3g contracted to 8s5p5d2f3g pattern {41111111/11111/11111/21/111}
 Group   2 Type O   : 12s5p4d2f1g contracted to 6s4p3d1f1g pattern {711111/2111/211/2/1}
 Group   3 Type C   : 12s5p4d2f1g contracted to 6s4p3d1f1g pattern {711111/2111/211/2/1}
 Group   4 Type H   : 5s2p1d contracted to 3s1p1d pattern {311/2/1}

Atom   0Pd   basis set group =>   1
Atom   1Pd   basis set group =>   1
Atom   2Pd   basis set group =>   1
Atom   3O    basis set group =>   2
Atom   4O    basis set group =>   2
Atom   5O    basis set group =>   2
Atom   6O    basis set group =>   2
Atom   7O    basis set group =>   2
Atom   8O    basis set group =>   2
Atom   9O    basis set group =>   2
Atom  10O    basis set group =>   2
Atom  11O    basis set group =>   2
Atom  12O    basis set group =>   2
Atom  13O    basis set group =>   2
Atom  14O    basis set group =>   2
Atom  15C    basis set group =>   3
Atom  16C    basis set group =>   3
Atom  17C    basis set group =>   3
Atom  18C    basis set group =>   3
Atom  19C    basis set group =>   3
Atom  20C    basis set group =>   3
Atom  21C    basis set group =>   3
Atom  22H    basis set group =>   4
Atom  23H    basis set group =>   4
Atom  24H    basis set group =>   4
Atom  25C    basis set group =>   3
Atom  26H    basis set group =>   4
Atom  27H    basis set group =>   4
Atom  28H    basis set group =>   4
Atom  29C    basis set group =>   3
Atom  30H    basis set group =>   4
Atom  31H    basis set group =>   4
Atom  32H    basis set group =>   4
Atom  33C    basis set group =>   3
Atom  34H    basis set group =>   4
Atom  35H    basis set group =>   4
Atom  36H    basis set group =>   4
Atom  37C    basis set group =>   3
Atom  38H    basis set group =>   4
Atom  39H    basis set group =>   4
Atom  40H    basis set group =>   4
Atom  41C    basis set group =>   3
Atom  42H    basis set group =>   4
Atom  43H    basis set group =>   4
Atom  44H    basis set group =>   4
-------------------------
ECP PARAMETER INFORMATION
-------------------------

 Group 1, Type Pd ECP Def2-ECP (replacing 28 core electrons, lmax=3)

Atom   0Pd   ECP group =>   1
Atom   1Pd   ECP group =>   1
Atom   2Pd   ECP group =>   1



           ************************************************************
           *        Program running with 16 parallel MPI-processes    *
           *              working on a common directory               *
           ************************************************************
------------------------------------------------------------------------------
                             ORCA STARTUP CALCULATIONS
                           -- RI-GTO INTEGRALS CHOSEN --
------------------------------------------------------------------------------
------------------------------------------------------------------------------
                   ___                                                        
                  /   \      - P O W E R E D   B Y -                         
                 /     \                                                     
                 |  |  |   _    _      __       _____    __    __             
                 |  |  |  | |  | |    /  \     |  _  \  |  |  /  |          
                  \  \/   | |  | |   /    \    | | | |  |  | /  /          
                 / \  \   | |__| |  /  /\  \   | |_| |  |  |/  /          
                |  |  |   |  __  | /  /__\  \  |    /   |      \           
                |  |  |   | |  | | |   __   |  |    \   |  |\   \          
                \     /   | |  | | |  |  |  |  | |\  \  |  | \   \       
                 \___/    |_|  |_| |__|  |__|  |_| \__\ |__|  \__/        
                                                                              
                      - O R C A' S   B I G   F R I E N D -                    
                                      &                                       
                       - I N T E G R A L  F E E D E R -                       
                                                                              
 v1 FN, 2020, v2 2021, v3 2022-2024                                           
------------------------------------------------------------------------------


----------------------
SHARK INTEGRAL PACKAGE
----------------------

Number of atoms                             ...     45
Number of basis functions                   ...    444
Number of shells                            ...    210
Maximum angular momentum                    ...      2
Integral batch strategy                     ... SHARK/LIBINT Hybrid
RI-J (if used) integral strategy            ... SPLIT-RIJ (Revised 2003 algorithm where possible)
Printlevel                                  ...      1
Contraction scheme used                     ... SEGMENTED contraction
Prescreening option                         ... SCHWARTZ
   Thresh                                   ... 2.500e-11
   Tcut                                     ... 2.500e-12
   Tpresel                                  ... 2.500e-12 
Coulomb Range Separation                    ... NOT USED
Exchange Range Separation                   ... NOT USED
Multipole approximations                    ... NOT USED
Finite Nucleus Model                        ... NOT USED
CABS basis                                  ... NOT available
Auxiliary Coulomb fitting basis             ... AVAILABLE
   # of basis functions in Aux-J            ...   1641
   # of shells in Aux-J                     ...    519
   Maximum angular momentum in Aux-J        ...      4
Auxiliary J/K fitting basis                 ... NOT available
Auxiliary Correlation fitting basis         ... NOT available
Auxiliary 'external' fitting basis          ... NOT available

Checking pre-screening integrals            ... done (  0.1 sec) Dimension = 210
Check shell pair data                       ... done (  0.1 sec)
Shell pair information
Shell pair cut-off parameter TPreSel        ...   2.5e-12
Total number of shell pairs                 ...     22155
Shell pairs after pre-screening             ...     16536
Total number of primitive shell pairs       ...     86316
Primitive shell pairs kept                  ...     38303
          la=0 lb=0:   5378 shell pairs
          la=1 lb=0:   5622 shell pairs
          la=1 lb=1:   1473 shell pairs
          la=2 lb=0:   2460 shell pairs
          la=2 lb=1:   1332 shell pairs
          la=2 lb=2:    271 shell pairs

Calculating one electron integrals          ... done (  0.0 sec)
Calculating ECP integrals                   ... done (  0.7 sec)
Calculating RI/J V-Matrix + Cholesky decomp.... done (  0.2 sec)
Calculating Nuclear repulsion               ... done (  0.0 sec) ENN=   3931.443884233937 Eh

Diagonalization of the overlap matrix:
Smallest eigenvalue                        ... 1.842e-03
Time for diagonalization                   ...    0.048 sec
Threshold for overlap eigenvalues          ... 1.000e-07
Number of eigenvalues below threshold      ... 0
Time for construction of square roots      ...    0.043 sec
Total time needed                          ...    0.174 sec

-------------------
DFT GRID GENERATION
-------------------

General Integration Accuracy     IntAcc      ... 4.388
Radial Grid Type                 RadialGrid  ... OptM3 with GC (2021)
Angular Grid (max. ang.)         AngularGrid ... 4 (Lebedev-302)
Angular grid pruning method      GridPruning ... 4 (adaptive)
Weight generation scheme         WeightScheme... mBecke (2022)
Basis function cutoff            BFCut       ... 1.0000e-11
Integration weight cutoff        WCut        ... 1.0000e-14
Partially contracted basis set               ... off
Rotationally invariant grid construction     ... off
Angular grids for H and He will be reduced by one unit

Total number of grid points                  ...   229988
Total number of batches                      ...     3615
Average number of points per batch           ...       63
Average number of grid points per atom       ...     5111

--------------------
COSX GRID GENERATION
--------------------

GRIDX 1
-------
General Integration Accuracy     IntAcc      ... 3.816
Radial Grid Type                 RadialGrid  ... OptM3 with GC (2021)
Angular Grid (max. ang.)         AngularGrid ... 1 (Lebedev-50)
Angular grid pruning method      GridPruning ... 4 (adaptive)
Weight generation scheme         WeightScheme... mBecke (2022)
Basis function cutoff            BFCut       ... 1.0000e-11
Integration weight cutoff        WCut        ... 1.0000e-14
Partially contracted basis set               ... on
Rotationally invariant grid construction     ... off
Angular grids for H and He will be reduced by one unit

Total number of grid points                  ...    38715
Total number of batches                      ...      331
Average number of points per batch           ...      116
Average number of grid points per atom       ...      860
UseSFitting                                  ... on

GRIDX 2
-------
General Integration Accuracy     IntAcc      ... 4.020
Radial Grid Type                 RadialGrid  ... OptM3 with GC (2021)
Angular Grid (max. ang.)         AngularGrid ... 2 (Lebedev-110)
Angular grid pruning method      GridPruning ... 4 (adaptive)
Weight generation scheme         WeightScheme... mBecke (2022)
Basis function cutoff            BFCut       ... 1.0000e-11
Integration weight cutoff        WCut        ... 1.0000e-14
Partially contracted basis set               ... on
Rotationally invariant grid construction     ... off
Angular grids for H and He will be reduced by one unit

Total number of grid points                  ...    69027
Total number of batches                      ...      565
Average number of points per batch           ...      122
Average number of grid points per atom       ...     1534
UseSFitting                                  ... on

GRIDX 3
-------
General Integration Accuracy     IntAcc      ... 4.338
Radial Grid Type                 RadialGrid  ... OptM3 with GC (2021)
Angular Grid (max. ang.)         AngularGrid ... 3 (Lebedev-194)
Angular grid pruning method      GridPruning ... 4 (adaptive)
Weight generation scheme         WeightScheme... mBecke (2022)
Basis function cutoff            BFCut       ... 1.0000e-11
Integration weight cutoff        WCut        ... 1.0000e-14
Partially contracted basis set               ... on
Rotationally invariant grid construction     ... off
Angular grids for H and He will be reduced by one unit

Total number of grid points                  ...   135809
Total number of batches                      ...     1080
Average number of points per batch           ...      125
Average number of grid points per atom       ...     3018
UseSFitting                                  ... on
Initializing property integral containers    ... done (  0.2 sec)

SHARK setup successfully completed in   7.9 seconds

Maximum memory used throughout the entire STARTUP-calculation: 62.4 MB


           ************************************************************
           *        Program running with 16 parallel MPI-processes    *
           *              working on a common directory               *
           ************************************************************
-------------------------------------------------------------------------------
                                 ORCA GUESS
                   Start orbitals & Density for SCF / CASSCF
-------------------------------------------------------------------------------

------------
SCF SETTINGS
------------
Hamiltonian:
 Density Functional     Method          .... DFT(GTOs)
 Exchange Functional    Exchange        .... PBE
   PBE kappa parameter   XKappa         ....  0.804000
   PBE mue parameter    XMuePBE         ....  0.219520
 Correlation Functional Correlation     .... PBE
   PBE beta parameter  CBetaPBE         ....  0.066725
 LDA part of GGA corr.  LDAOpt          .... PW91-LDA
 Gradients option       PostSCFGGA      .... off
 Hybrid DFT is turned on
   Fraction HF Exchange ScalHFX         ....  0.250000
   Scaling of DF-GGA-X  ScalDFX         ....  0.750000
   Scaling of DF-GGA-C  ScalDFC         ....  1.000000
   Scaling of DF-LDA-C  ScalLDAC        ....  1.000000
   Perturbative correction              ....  0.000000
   NL short-range parameter             ....  6.900000
 RI-approximation to the Coulomb term is turned on
   Number of AuxJ basis functions       .... 1641
   RIJ-COSX (HFX calculated with COS-X)).... on


General Settings:
 Integral files         IntName         .... CS_PdOAc_001_freq_01
 Hartree-Fock type      HFTyp           .... RHF
 Total Charge           Charge          ....    0
 Multiplicity           Mult            ....    1
 Number of Electrons    NEL             ....  240
 Basis Dimension        Dim             ....  444
 Nuclear Repulsion      ENuc            ....   3931.4438842339 Eh

Convergence Acceleration:
 AO-DIIS                CNVDIIS         .... on
   Start iteration      DIISMaxIt       ....     0
   Startup error        DIISStart       ....  0.200000
   # of expansion vecs  DIISMaxEq       ....     5
   Bias factor          DIISBfac        ....   1.050
   Max. coefficient     DIISMaxC        ....  10.000
 MO-DIIS                CNVKDIIS        .... off
 Trust-Rad. Augm. Hess. CNVTRAH         .... auto
   Auto Start mean grad. ratio tolernc. ....  1.125000
   Auto Start start iteration           ....    50
   Auto Start num. interpolation iter.  ....    10
   Max. Number of Micro iterations      ....    24
   Max. Number of Macro iterations      .... Maxiter - #DIIS iter
   Number of Davidson start vectors     ....     2
   Converg. threshold    (grad. norm)   ....   1.000e-05
   Grad. Scal. Fac. for Micro threshold ....   0.100
   Minimum threshold for Micro iter.    ....   1.000e-02
   NR start threshold (gradient norm)   ....   1.000e-04
   Initial trust radius                 ....   0.400
   Minimum AH scaling param. (alpha)    ....   1.000
   Maximum AH scaling param. (alpha)    .... 1000.000
   Quad. conv. algorithm                .... NR
   White noise on init. David. guess    .... on
   Maximum white noise                  ....   0.010
   Pseudo random numbers                .... off
   Inactive MOs                         .... canonical
   Orbital update algorithm             .... Taylor
   Preconditioner                       .... Diag
   Full preconditioner red. dimension   ....   250
 SOSCF                  CNVSOSCF        .... on
   Start iteration      SOSCFMaxIt      ....   150
   Startup grad/error   SOSCFStart      ....  0.001000
   Hessian update       SOSCFHessUp     .... L-BFGS
 Level Shifting         CNVShift        .... on
   Level shift para.    LevelShift      ....    0.2500
   Turn off err/grad.   ShiftErr        ....    0.0000
 Zerner damping         CNVZerner       .... off
 Static damping         CNVDamp         .... on
   Fraction old density DampFac         ....    0.8500
   Max. Damping (<1)    DampMax         ....    0.9800
   Min. Damping (>=0)   DampMin         ....    0.0000
   Turn off err/grad.   DampErr         ....    0.0300

SCF Procedure:
 Maximum # iterations   MaxIter         ....  1500
 SCF integral mode      SCFMode         .... Direct
   Integral package                     .... SHARK and LIBINT hybrid scheme
 Reset frequency        DirectResetFreq ....    20
 Integral Threshold     Thresh          ....  2.500e-11 Eh
 Primitive CutOff       TCut            ....  2.500e-12 Eh

Convergence Tolerance:
 Convergence Check Mode ConvCheckMode   .... Total+1el-Energy
 Convergence forced     ConvForced      .... 0
 Energy Change          TolE            ....  1.000e-08 Eh
 1-El. energy change                    ....  1.000e-05 Eh
 Orbital Gradient       TolG            ....  1.000e-05
 Orbital Rotation angle TolX            ....  1.000e-05
 DIIS Error             TolErr          ....  5.000e-07

------------------------------
INITIAL GUESS: MODEL POTENTIAL
------------------------------
Loading Hartree-Fock densities                     ... done
Atomic calculation to generate a density for atom 0 (Pd with ECP)
  Multiplicity assumed   :    3
  Atomic configuration   : 1s2 2s2 2p6 3s2 3p6 4s2 3d10 4p6 5s2 4d8 
  Number of open shells  : 1
  Command: /opt/apps/software/ORCA/6.0.0-gompi-2023b/bin/orca CS_PdOAc_001_freq_01_atom46.inp "" > CS_PdOAc_001_freq_01_atom46.out
Returned from the atomic calculation with res=0
Calculating cut-offs                               ... done
Initializing the effective Hamiltonian             ... done
Setting up the integral package (SHARK)            ... done
Starting the Coulomb interaction                   ... done (   0.4 sec)
Making the grid                                    ... done (   0.8 sec)
Mapping shells                                     ... done
Starting the XC term evaluation                    ... done (   0.2 sec)
  promolecular density results
     # of electrons  =    323.973552280
     EX              =   -580.303123239
     EC              =    -13.624873643
     EX+EC           =   -593.927996882
Transforming the Hamiltonian                       ... done (   0.1 sec)
Diagonalizing the Hamiltonian                      ... done (   0.1 sec)
Back transforming the eigenvectors                 ... done (   0.1 sec)
Now organizing SCF variables                       ... done
                      ------------------
                      INITIAL GUESS DONE (  17.0 sec)
                      ------------------
             **** ENERGY FILE WAS UPDATED (CS_PdOAc_001_freq_01.en.tmp) ****
Finished Guess after  19.2 sec
Maximum memory used throughout the entire GUESS-calculation: 38.8 MB


           ************************************************************
           *        Program running with 16 parallel MPI-processes    *
           *              working on a common directory               *
           ************************************************************

-------------------------------------------------------------------------------------------
                                      ORCA LEAN-SCF
                              memory conserving SCF solver
-------------------------------------------------------------------------------------------

----------------------------------------D-I-I-S--------------------------------------------
Iteration    Energy (Eh)           Delta-E    RMSDP     MaxDP     DIISErr   Damp  Time(sec)
-------------------------------------------------------------------------------------------
               ***  Starting incremental Fock matrix formation  ***
    1    -1751.3994143098793757     0.00e+00  1.23e-03  4.69e-02  4.63e-01  0.850   8.3
    2    -1751.6108557951451985    -2.11e-01  1.20e-03  6.15e-02  3.92e-01  0.850   6.8
                               ***Turning on AO-DIIS***
    3    -1751.7442793138993693    -1.33e-01  6.11e-04  2.99e-02  3.31e-01  0.850   6.5
    4    -1751.8282921222348705    -8.40e-02  3.81e-04  1.71e-02  2.80e-01  0.850   6.1
    5    -1751.8884585005330337    -6.02e-02  2.75e-04  1.38e-02  2.38e-01  0.850   6.2
    6    -1751.9360518986554780    -4.76e-02  2.27e-04  1.14e-02  2.02e-01  0.850   6.7
    7    -1751.9755540505261706    -3.95e-02  2.02e-04  9.78e-03  1.72e-01  0.850   6.1
    8    -1752.0086359247375185    -3.31e-02  1.76e-04  8.74e-03  1.46e-01  0.850   6.2
    9    -1752.0358524571061025    -2.72e-02  1.49e-04  7.55e-03  1.24e-01  0.850   7.6
   10    -1752.0582033422410859    -2.24e-02  1.24e-04  6.31e-03  1.06e-01  0.850   7.1
   11    -1752.0766793772340861    -1.85e-02  1.03e-04  5.25e-03  8.96e-02  0.850   6.0
   12    -1752.0920520185495661    -1.54e-02  8.67e-05  4.45e-03  7.62e-02  0.850   6.2
   13    -1752.1048920695734523    -1.28e-02  7.33e-05  3.82e-03  6.47e-02  0.850   6.0
   14    -1752.1156403240979671    -1.07e-02  6.19e-05  3.27e-03  5.50e-02  0.850   6.2
   15    -1752.1246571759406834    -9.02e-03  5.22e-05  2.77e-03  4.67e-02  0.850   6.1
   16    -1752.1322384241825603    -7.58e-03  4.39e-05  2.34e-03  3.97e-02  0.850   6.1
   17    -1752.1386248035228164    -6.39e-03  3.70e-05  1.98e-03  3.37e-02  0.850   6.1
   18    -1752.1440125132899084    -5.39e-03  3.12e-05  1.69e-03  2.87e-02  0.850   6.1
   19    -1752.1485630554057025    -4.55e-03  1.75e-04  9.58e-03  2.44e-02  0.000   6.6
                              *** Initializing SOSCF ***
---------------------------------------S-O-S-C-F--------------------------------------
Iteration    Energy (Eh)           Delta-E    RMSDP     MaxDP     MaxGrad    Time(sec)
--------------------------------------------------------------------------------------
   20    -1752.1738845901095374    -2.53e-02  1.15e-05  5.30e-04  3.50e-04     6.8
               *** Restarting incremental Fock matrix formation ***
   21    -1752.1738358628813330     4.87e-05  9.91e-06  5.04e-04  5.13e-05     7.4
   22    -1752.1738357095714491     1.53e-07  3.61e-06  1.26e-04  9.63e-05     6.6
   23    -1752.1738361858538156    -4.76e-07  6.58e-07  2.48e-05  4.86e-06     6.8
   24    -1752.1738361724733295     1.34e-08  2.60e-07  1.17e-05  5.15e-06     5.2
   25    -1752.1738361765196714    -4.05e-09  1.84e-07  9.96e-06  1.17e-06     4.8
                 **** Energy Check signals convergence ****

               *****************************************************
               *                     SUCCESS                       *
               *           SCF CONVERGED AFTER  25 CYCLES          *
               *****************************************************

Recomputing exchange energy using gridx3       ... done (    7.125 sec)
Old exchange energy                            :    -50.632147402 Eh
New exchange energy                            :    -50.632118760 Eh
Exchange energy change after final integration :      0.000028641 Eh
Total energy after final integration           :  -1752.173807535 Eh
             **** ENERGY FILE WAS UPDATED (CS_PdOAc_001_freq_01.en.tmp) ****

----------------
TOTAL SCF ENERGY
----------------

Total Energy       :      -1752.17380753515727 Eh          -47679.07326 eV

Components:
Nuclear Repulsion  :       3931.44388423393730 Eh          106980.02685 eV
Electronic Energy  :      -5683.61772041045697 Eh         -154659.10089 eV
One Electron Energy:     -10393.47885116010912 Eh         -282820.93788 eV
Two Electron Energy:       4709.86113074965215 Eh          128161.83699 eV

Virial components:
Potential Energy   :      -3253.73586681068355 Eh          -88538.65415 eV
Kinetic Energy     :       1501.56205927552628 Eh           40859.58089 eV
Virial Ratio       :          2.16690069298937

DFT components:
N(Alpha)           :      119.999778224479 electrons
N(Beta)            :      119.999778224479 electrons
N(Total)           :      239.999556448958 electrons
E(X)               :     -152.137025179361 Eh       
E(C)               :       -8.694659437373 Eh       
E(XC)              :     -160.831684616734 Eh       

---------------
SCF CONVERGENCE
---------------

  Last Energy change         ...    4.0463e-09  Tolerance :   1.0000e-08
  Last MAX-Density change    ...    9.9598e-06  Tolerance :   1.0000e-07
  Last RMS-Density change    ...    1.8365e-07  Tolerance :   5.0000e-09
  Last DIIS Error            ...    3.5008e-04  Tolerance :   5.0000e-07
  Last Orbital Gradient      ...    1.1666e-06  Tolerance :   1.0000e-05
  Last Orbital Rotation      ...    3.2015e-06  Tolerance :   1.0000e-05


----------------
ORBITAL ENERGIES
----------------

  NO   OCC          E(Eh)            E(eV) 
   0   2.0000     -19.234213      -523.3895 
   1   2.0000     -19.234178      -523.3886 
   2   2.0000     -19.234108      -523.3867 
   3   2.0000     -19.234017      -523.3842 
   4   2.0000     -19.233988      -523.3834 
   5   2.0000     -19.233976      -523.3831 
   6   2.0000     -19.231699      -523.3211 
   7   2.0000     -19.231653      -523.3199 
   8   2.0000     -19.231632      -523.3193 
   9   2.0000     -19.231514      -523.3161 
  10   2.0000     -19.231477      -523.3151 
  11   2.0000     -19.231448      -523.3143 
  12   2.0000     -10.369712      -282.1742 
  13   2.0000     -10.369705      -282.1740 
  14   2.0000     -10.369683      -282.1734 
  15   2.0000     -10.369681      -282.1734 
  16   2.0000     -10.369649      -282.1725 
  17   2.0000     -10.369633      -282.1720 
  18   2.0000     -10.237165      -278.5674 
  19   2.0000     -10.237138      -278.5667 
  20   2.0000     -10.237124      -278.5663 
  21   2.0000     -10.237092      -278.5654 
  22   2.0000     -10.237056      -278.5645 
  23   2.0000     -10.237022      -278.5635 
  24   2.0000      -3.543120       -96.4132 
  25   2.0000      -3.543065       -96.4117 
  26   2.0000      -3.543053       -96.4114 
  27   2.0000      -2.223480       -60.5040 
  28   2.0000      -2.223473       -60.5038 
  29   2.0000      -2.223430       -60.5026 
  30   2.0000      -2.222513       -60.4776 
  31   2.0000      -2.222495       -60.4772 
  32   2.0000      -2.222298       -60.4718 
  33   2.0000      -2.176935       -59.2374 
  34   2.0000      -2.176089       -59.2144 
  35   2.0000      -2.176072       -59.2139 
  36   2.0000      -1.119587       -30.4655 
  37   2.0000      -1.115379       -30.3510 
  38   2.0000      -1.115339       -30.3499 
  39   2.0000      -1.112702       -30.2782 
  40   2.0000      -1.112685       -30.2777 
  41   2.0000      -1.112401       -30.2700 
  42   2.0000      -1.027729       -27.9659 
  43   2.0000      -1.027708       -27.9654 
  44   2.0000      -1.024248       -27.8712 
  45   2.0000      -1.023674       -27.8556 
  46   2.0000      -1.023656       -27.8551 
  47   2.0000      -1.021947       -27.8086 
  48   2.0000      -0.764786       -20.8109 
  49   2.0000      -0.762021       -20.7356 
  50   2.0000      -0.761997       -20.7350 
  51   2.0000      -0.761958       -20.7339 
  52   2.0000      -0.761914       -20.7327 
  53   2.0000      -0.760743       -20.7009 
  54   2.0000      -0.599545       -16.3144 
  55   2.0000      -0.588248       -16.0071 
  56   2.0000      -0.588232       -16.0066 
  57   2.0000      -0.583879       -15.8882 
  58   2.0000      -0.583841       -15.8871 
  59   2.0000      -0.578541       -15.7429 
  60   2.0000      -0.553062       -15.0496 
  61   2.0000      -0.544956       -14.8290 
  62   2.0000      -0.544927       -14.8282 
  63   2.0000      -0.532871       -14.5002 
  64   2.0000      -0.532854       -14.4997 
  65   2.0000      -0.517909       -14.0930 
  66   2.0000      -0.512453       -13.9446 
  67   2.0000      -0.500605       -13.6222 
  68   2.0000      -0.500588       -13.6217 
  69   2.0000      -0.498494       -13.5647 
  70   2.0000      -0.497732       -13.5440 
  71   2.0000      -0.497711       -13.5434 
  72   2.0000      -0.497594       -13.5402 
  73   2.0000      -0.490822       -13.3559 
  74   2.0000      -0.490813       -13.3557 
  75   2.0000      -0.489263       -13.3135 
  76   2.0000      -0.481582       -13.1045 
  77   2.0000      -0.481568       -13.1041 
  78   2.0000      -0.427315       -11.6278 
  79   2.0000      -0.427302       -11.6275 
  80   2.0000      -0.426520       -11.6062 
  81   2.0000      -0.426512       -11.6060 
  82   2.0000      -0.425973       -11.5913 
  83   2.0000      -0.425388       -11.5754 
  84   2.0000      -0.419350       -11.4111 
  85   2.0000      -0.415130       -11.2963 
  86   2.0000      -0.415085       -11.2950 
  87   2.0000      -0.406733       -11.0678 
  88   2.0000      -0.400885       -10.9086 
  89   2.0000      -0.400856       -10.9079 
  90   2.0000      -0.390647       -10.6300 
  91   2.0000      -0.390633       -10.6297 
  92   2.0000      -0.376620       -10.2484 
  93   2.0000      -0.366799        -9.9811 
  94   2.0000      -0.366773        -9.9804 
  95   2.0000      -0.356917        -9.7122 
  96   2.0000      -0.356904        -9.7119 
  97   2.0000      -0.347363        -9.4522 
  98   2.0000      -0.345243        -9.3945 
  99   2.0000      -0.345194        -9.3932 
 100   2.0000      -0.344832        -9.3833 
 101   2.0000      -0.336212        -9.1488 
 102   2.0000      -0.336189        -9.1482 
 103   2.0000      -0.329819        -8.9748 
 104   2.0000      -0.328149        -8.9294 
 105   2.0000      -0.325694        -8.8626 
 106   2.0000      -0.325649        -8.8614 
 107   2.0000      -0.321425        -8.7464 
 108   2.0000      -0.314504        -8.5581 
 109   2.0000      -0.307240        -8.3604 
 110   2.0000      -0.294426        -8.0117 
 111   2.0000      -0.294403        -8.0111 
 112   2.0000      -0.292738        -7.9658 
 113   2.0000      -0.287565        -7.8250 
 114   2.0000      -0.287536        -7.8243 
 115   2.0000      -0.272511        -7.4154 
 116   2.0000      -0.272503        -7.4152 
 117   2.0000      -0.268846        -7.3157 
 118   2.0000      -0.245668        -6.6850 
 119   2.0000      -0.245596        -6.6830 
 120   0.0000      -0.096849        -2.6354 
 121   0.0000      -0.078329        -2.1314 
 122   0.0000      -0.078300        -2.1307 
 123   0.0000       0.007788         0.2119 
 124   0.0000       0.009514         0.2589 
 125   0.0000       0.009661         0.2629 
 126   0.0000       0.010041         0.2732 
 127   0.0000       0.016543         0.4502 
 128   0.0000       0.016565         0.4508 
 129   0.0000       0.033101         0.9007 
 130   0.0000       0.043150         1.1742 
*Only the first 10 virtual orbitals were printed.

                    ********************************
                    * MULLIKEN POPULATION ANALYSIS *
                    ********************************

-----------------------
MULLIKEN ATOMIC CHARGES
-----------------------
   0 Pd:    0.471165
   1 Pd:    0.471377
   2 Pd:    0.471860
   3 O :   -0.357544
   4 O :   -0.355695
   5 O :   -0.355933
   6 O :   -0.357978
   7 O :   -0.355509
   8 O :   -0.357900
   9 O :   -0.357670
  10 O :   -0.355891
  11 O :   -0.357700
  12 O :   -0.355968
  13 O :   -0.358061
  14 O :   -0.355535
  15 C :    0.342847
  16 C :    0.342518
  17 C :    0.342420
  18 C :    0.343116
  19 C :    0.342541
  20 C :    0.342575
  21 C :   -0.353901
  22 H :    0.158777
  23 H :    0.167278
  24 H :    0.162873
  25 C :   -0.353224
  26 H :    0.162811
  27 H :    0.158607
  28 H :    0.166986
  29 C :   -0.353897
  30 H :    0.167085
  31 H :    0.162896
  32 H :    0.158797
  33 C :   -0.353390
  34 H :    0.162712
  35 H :    0.158959
  36 H :    0.167095
  37 C :   -0.353456
  38 H :    0.159131
  39 H :    0.167042
  40 H :    0.162632
  41 C :   -0.353048
  42 H :    0.166886
  43 H :    0.162660
  44 H :    0.158655
Sum of atomic charges:   -0.0000000

--------------------------------
MULLIKEN REDUCED ORBITAL CHARGES
--------------------------------
  0 Pds       :     2.482142  s :     2.482142
      pz      :     2.152994  p :     6.371142
      px      :     2.138042
      py      :     2.080106
      dz2     :     1.886837  d :     8.675551
      dxz     :     1.045247
      dyz     :     1.833149
      dx2y2   :     1.955905
      dxy     :     1.954413

  1 Pds       :     2.482416  s :     2.482416
      pz      :     2.153021  p :     6.370731
      px      :     2.119722
      py      :     2.097987
      dz2     :     1.875990  d :     8.675477
      dxz     :     1.301972
      dyz     :     1.590624
      dx2y2   :     1.991246
      dxy     :     1.915644

  2 Pds       :     2.481694  s :     2.481694
      pz      :     2.153021  p :     6.371095
      px      :     2.069131
      py      :     2.148943
      dz2     :     1.878219  d :     8.675351
      dxz     :     1.982391
      dyz     :     0.907167
      dx2y2   :     1.915952
      dxy     :     1.991622

  3 O s       :     3.777995  s :     3.777995
      pz      :     1.529198  p :     4.564334
      px      :     1.392451
      py      :     1.642685
      dz2     :     0.002384  d :     0.015215
      dxz     :     0.002995
      dyz     :     0.002784
      dx2y2   :     0.003270
      dxy     :     0.003784

  4 O s       :     3.784464  s :     3.784464
      pz      :     1.608476  p :     4.555714
      px      :     1.294122
      py      :     1.653116
      dz2     :     0.002474  d :     0.015516
      dxz     :     0.003190
      dyz     :     0.000910
      dx2y2   :     0.004927
      dxy     :     0.004015

  5 O s       :     3.784650  s :     3.784650
      pz      :     1.608358  p :     4.555779
      px      :     1.483496
      py      :     1.463926
      dz2     :     0.002470  d :     0.015504
      dxz     :     0.001376
      dyz     :     0.002722
      dx2y2   :     0.004020
      dxy     :     0.004916

  6 O s       :     3.778060  s :     3.778060
      pz      :     1.530239  p :     4.564711
      px      :     1.575754
      py      :     1.458718
      dz2     :     0.002378  d :     0.015206
      dxz     :     0.001166
      dyz     :     0.004600
      dx2y2   :     0.003807
      dxy     :     0.003255

  7 O s       :     3.784364  s :     3.784364
      pz      :     1.607606  p :     4.555629
      px      :     1.570772
      py      :     1.377251
      dz2     :     0.002484  d :     0.015516
      dxz     :     0.000903
      dyz     :     0.003193
      dx2y2   :     0.004627
      dxy     :     0.004309

  8 O s       :     3.777971  s :     3.777971
      pz      :     1.534805  p :     4.564721
      px      :     1.375082
      py      :     1.654835
      dz2     :     0.002354  d :     0.015207
      dxz     :     0.003803
      dyz     :     0.001895
      dx2y2   :     0.004013
      dxy     :     0.003142

  9 O s       :     3.777891  s :     3.777891
      pz      :     1.530407  p :     4.564567
      px      :     1.629760
      py      :     1.404400
      dz2     :     0.002382  d :     0.015212
      dxz     :     0.001331
      dyz     :     0.004431
      dx2y2   :     0.004251
      dxy     :     0.002818

 10 O s       :     3.784435  s :     3.784435
      pz      :     1.605383  p :     4.555951
      px      :     1.316234
      py      :     1.634333
      dz2     :     0.002472  d :     0.015505
      dxz     :     0.003379
      dyz     :     0.000740
      dx2y2   :     0.005078
      dxy     :     0.003836

 11 O s       :     3.777992  s :     3.777992
      pz      :     1.534361  p :     4.564496
      px      :     1.527531
      py      :     1.502604
      dz2     :     0.002355  d :     0.015212
      dxz     :     0.004273
      dyz     :     0.001433
      dx2y2   :     0.003132
      dxy     :     0.004019

 12 O s       :     3.784539  s :     3.784539
      pz      :     1.608507  p :     4.555925
      px      :     1.622811
      py      :     1.324607
      dz2     :     0.002482  d :     0.015504
      dxz     :     0.001409
      dyz     :     0.002678
      dx2y2   :     0.004295
      dxy     :     0.004641

 13 O s       :     3.778030  s :     3.778030
      pz      :     1.529615  p :     4.564832
      px      :     1.598720
      py      :     1.436497
      dz2     :     0.002384  d :     0.015199
      dxz     :     0.003638
      dyz     :     0.002130
      dx2y2   :     0.002805
      dxy     :     0.004242

 14 O s       :     3.784206  s :     3.784206
      pz      :     1.605313  p :     4.555815
      px      :     1.557610
      py      :     1.392893
      dz2     :     0.002469  d :     0.015513
      dxz     :     0.002095
      dyz     :     0.002032
      dx2y2   :     0.003836
      dxy     :     0.005081

 15 C s       :     3.036812  s :     3.036812
      pz      :     0.853514  p :     2.477537
      px      :     0.817538
      py      :     0.806485
      dz2     :     0.022824  d :     0.142803
      dxz     :     0.012155
      dyz     :     0.038041
      dx2y2   :     0.034066
      dxy     :     0.035717

 16 C s       :     3.037052  s :     3.037052
      pz      :     0.852204  p :     2.477624
      px      :     0.824135
      py      :     0.801285
      dz2     :     0.022636  d :     0.142807
      dxz     :     0.016315
      dyz     :     0.033793
      dx2y2   :     0.036814
      dxy     :     0.033248

 17 C s       :     3.036956  s :     3.036956
      pz      :     0.854027  p :     2.477830
      px      :     0.799529
      py      :     0.824273
      dz2     :     0.022882  d :     0.142794
      dxz     :     0.020185
      dyz     :     0.030049
      dx2y2   :     0.035734
      dxy     :     0.033944

 18 C s       :     3.036684  s :     3.036684
      pz      :     0.851365  p :     2.477399
      px      :     0.820631
      py      :     0.805403
      dz2     :     0.022618  d :     0.142801
      dxz     :     0.035810
      dyz     :     0.014276
      dx2y2   :     0.033217
      dxy     :     0.036881

 19 C s       :     3.036965  s :     3.036965
      pz      :     0.852283  p :     2.477665
      px      :     0.799658
      py      :     0.825724
      dz2     :     0.022512  d :     0.142830
      dxz     :     0.027427
      dyz     :     0.022634
      dx2y2   :     0.037668
      dxy     :     0.032589

 20 C s       :     3.036891  s :     3.036891
      pz      :     0.853002  p :     2.477723
      px      :     0.813042
      py      :     0.811680
      dz2     :     0.022573  d :     0.142811
      dxz     :     0.038691
      dyz     :     0.011392
      dx2y2   :     0.032506
      dxy     :     0.037649

 21 C s       :     3.129878  s :     3.129878
      pz      :     1.041459  p :     3.195671
      px      :     1.054200
      py      :     1.100012
      dz2     :     0.004315  d :     0.028352
      dxz     :     0.008188
      dyz     :     0.004799
      dx2y2   :     0.003677
      dxy     :     0.007374

 22 H s       :     0.841223  s :     0.841223

 23 H s       :     0.832722  s :     0.832722

 24 H s       :     0.837127  s :     0.837127

 25 C s       :     3.129413  s :     3.129413
      pz      :     1.042530  p :     3.195457
      px      :     1.090481
      py      :     1.062446
      dz2     :     0.004425  d :     0.028355
      dxz     :     0.006836
      dyz     :     0.005979
      dx2y2   :     0.008605
      dxy     :     0.002511

 26 H s       :     0.837189  s :     0.837189

 27 H s       :     0.841393  s :     0.841393

 28 H s       :     0.833014  s :     0.833014

 29 C s       :     3.129942  s :     3.129942
      pz      :     1.042970  p :     3.195603
      px      :     1.085005
      py      :     1.067628
      dz2     :     0.004218  d :     0.028352
      dxz     :     0.004444
      dyz     :     0.008655
      dx2y2   :     0.004250
      dxy     :     0.006786

 30 H s       :     0.832915  s :     0.832915

 31 H s       :     0.837104  s :     0.837104

 32 H s       :     0.841203  s :     0.841203

 33 C s       :     3.129507  s :     3.129507
      pz      :     1.042204  p :     3.195525
      px      :     1.080922
      py      :     1.072399
      dz2     :     0.004588  d :     0.028357
      dxz     :     0.007720
      dyz     :     0.004835
      dx2y2   :     0.007758
      dxy     :     0.003457

 34 H s       :     0.837288  s :     0.837288

 35 H s       :     0.841041  s :     0.841041

 36 H s       :     0.832905  s :     0.832905

 37 C s       :     3.129605  s :     3.129605
      pz      :     1.043584  p :     3.195497
      px      :     1.053278
      py      :     1.098635
      dz2     :     0.004525  d :     0.028354
      dxz     :     0.007330
      dyz     :     0.005286
      dx2y2   :     0.006432
      dxy     :     0.004781

 38 H s       :     0.840869  s :     0.840869

 39 H s       :     0.832958  s :     0.832958

 40 H s       :     0.837368  s :     0.837368

 41 C s       :     3.129694  s :     3.129694
      pz      :     1.042504  p :     3.195004
      px      :     1.094776
      py      :     1.057724
      dz2     :     0.004600  d :     0.028350
      dxz     :     0.003794
      dyz     :     0.008739
      dx2y2   :     0.002656
      dxy     :     0.008561

 42 H s       :     0.833114  s :     0.833114

 43 H s       :     0.837340  s :     0.837340

 44 H s       :     0.841345  s :     0.841345



                     *******************************
                     * LOEWDIN POPULATION ANALYSIS *
                     *******************************

----------------------
LOEWDIN ATOMIC CHARGES
----------------------
   0 Pd:   -0.181081
   1 Pd:   -0.181092
   2 Pd:   -0.180999
   3 O :   -0.075094
   4 O :   -0.071549
   5 O :   -0.071885
   6 O :   -0.075521
   7 O :   -0.071418
   8 O :   -0.075450
   9 O :   -0.075070
  10 O :   -0.071913
  11 O :   -0.075218
  12 O :   -0.071882
  13 O :   -0.075574
  14 O :   -0.071476
  15 C :    0.133814
  16 C :    0.133750
  17 C :    0.133738
  18 C :    0.133789
  19 C :    0.133696
  20 C :    0.133691
  21 C :   -0.346213
  22 H :    0.143601
  23 H :    0.155886
  24 H :    0.150543
  25 C :   -0.346152
  26 H :    0.150467
  27 H :    0.143567
  28 H :    0.155819
  29 C :   -0.346193
  30 H :    0.155822
  31 H :    0.150578
  32 H :    0.143604
  33 C :   -0.346117
  34 H :    0.149974
  35 H :    0.143898
  36 H :    0.156089
  37 C :   -0.346153
  38 H :    0.143902
  39 H :    0.156059
  40 H :    0.150007
  41 C :   -0.346029
  42 H :    0.155931
  43 H :    0.150135
  44 H :    0.143718

-------------------------------
LOEWDIN REDUCED ORBITAL CHARGES
-------------------------------
  0 Pds       :     2.416499  s :     2.416499
      pz      :     2.276199  p :     6.700712
      px      :     2.259844
      py      :     2.164669
      dz2     :     1.973261  d :     9.063870
      dxz     :     1.199848
      dyz     :     1.888048
      dx2y2   :     2.001961
      dxy     :     2.000753

  1 Pds       :     2.416713  s :     2.416713
      pz      :     2.276277  p :     6.700513
      px      :     2.230002
      py      :     2.194234
      dz2     :     1.963880  d :     9.063865
      dxz     :     1.424221
      dyz     :     1.676174
      dx2y2   :     2.033012
      dxy     :     1.966578

  2 Pds       :     2.416570  s :     2.416570
      pz      :     2.276203  p :     6.700650
      px      :     2.146640
      py      :     2.277807
      dz2     :     1.965802  d :     9.063779
      dxz     :     2.018287
      dyz     :     1.079412
      dx2y2   :     1.966910
      dxy     :     2.033369

  3 O s       :     3.452093  s :     3.452093
      pz      :     1.520950  p :     4.594522
      px      :     1.434920
      py      :     1.638651
      dz2     :     0.003798  d :     0.028479
      dxz     :     0.007532
      dyz     :     0.004540
      dx2y2   :     0.005193
      dxy     :     0.007416

  4 O s       :     3.455818  s :     3.455818
      pz      :     1.570944  p :     4.586923
      px      :     1.398397
      py      :     1.617581
      dz2     :     0.004954  d :     0.028807
      dxz     :     0.005892
      dyz     :     0.001252
      dx2y2   :     0.010538
      dxy     :     0.006173

  5 O s       :     3.455784  s :     3.455784
      pz      :     1.570703  p :     4.587307
      px      :     1.491681
      py      :     1.524922
      dz2     :     0.004945  d :     0.028795
      dxz     :     0.002778
      dyz     :     0.004375
      dx2y2   :     0.006198
      dxy     :     0.010498

  6 O s       :     3.452021  s :     3.452021
      pz      :     1.521924  p :     4.595033
      px      :     1.543603
      py      :     1.529506
      dz2     :     0.003789  d :     0.028468
      dxz     :     0.002481
      dyz     :     0.009561
      dx2y2   :     0.007467
      dxy     :     0.005170

  7 O s       :     3.455764  s :     3.455764
      pz      :     1.570227  p :     4.586842
      px      :     1.547660
      py      :     1.468956
      dz2     :     0.004961  d :     0.028811
      dxz     :     0.001747
      dyz     :     0.005455
      dx2y2   :     0.008785
      dxy     :     0.007863

  8 O s       :     3.452031  s :     3.452031
      pz      :     1.524886  p :     4.594951
      px      :     1.441629
      py      :     1.628435
      dz2     :     0.003756  d :     0.028468
      dxz     :     0.008961
      dyz     :     0.002889
      dx2y2   :     0.007215
      dxy     :     0.005648

  9 O s       :     3.451956  s :     3.451956
      pz      :     1.521857  p :     4.594636
      px      :     1.593030
      py      :     1.479748
      dz2     :     0.003776  d :     0.028478
      dxz     :     0.002212
      dyz     :     0.009810
      dx2y2   :     0.008251
      dxy     :     0.004430

 10 O s       :     3.455802  s :     3.455802
      pz      :     1.568070  p :     4.587316
      px      :     1.424047
      py      :     1.595200
      dz2     :     0.004933  d :     0.028795
      dxz     :     0.006061
      dyz     :     0.001196
      dx2y2   :     0.010939
      dxy     :     0.005666

 11 O s       :     3.452105  s :     3.452105
      pz      :     1.524428  p :     4.594639
      px      :     1.580378
      py      :     1.489833
      dz2     :     0.003762  d :     0.028474
      dxz     :     0.008190
      dyz     :     0.003679
      dx2y2   :     0.005616
      dxy     :     0.007228

 12 O s       :     3.455732  s :     3.455732
      pz      :     1.570871  p :     4.587353
      px      :     1.610330
      py      :     1.406152
      dz2     :     0.004959  d :     0.028797
      dxz     :     0.001990
      dyz     :     0.005194
      dx2y2   :     0.007814
      dxy     :     0.008840

 13 O s       :     3.452026  s :     3.452026
      pz      :     1.521505  p :     4.595093
      px      :     1.623091
      py      :     1.450497
      dz2     :     0.003775  d :     0.028456
      dxz     :     0.006461
      dyz     :     0.005580
      dx2y2   :     0.004417
      dxy     :     0.008222

 14 O s       :     3.455732  s :     3.455732
      pz      :     1.568061  p :     4.586934
      px      :     1.579547
      py      :     1.439326
      dz2     :     0.004931  d :     0.028810
      dxz     :     0.003165
      dyz     :     0.004097
      dx2y2   :     0.005685
      dxy     :     0.010933

 15 C s       :     2.816071  s :     2.816071
      pz      :     0.916643  p :     2.738991
      px      :     0.865353
      py      :     0.956995
      dz2     :     0.048769  d :     0.311125
      dxz     :     0.026359
      dyz     :     0.081465
      dx2y2   :     0.080929
      dxy     :     0.073602

 16 C s       :     2.816058  s :     2.816058
      pz      :     0.914157  p :     2.739054
      px      :     0.888845
      py      :     0.936051
      dz2     :     0.048257  d :     0.311138
      dxz     :     0.035354
      dyz     :     0.072273
      dx2y2   :     0.081837
      dxy     :     0.073418

 17 C s       :     2.816074  s :     2.816074
      pz      :     0.917142  p :     2.739085
      px      :     0.880570
      py      :     0.941374
      dz2     :     0.048860  d :     0.311102
      dxz     :     0.043213
      dyz     :     0.064733
      dx2y2   :     0.073578
      dxy     :     0.080718

 18 C s       :     2.816070  s :     2.816070
      pz      :     0.913717  p :     2.739032
      px      :     0.961538
      py      :     0.863778
      dz2     :     0.048209  d :     0.311109
      dxz     :     0.076945
      dyz     :     0.030671
      dx2y2   :     0.073457
      dxy     :     0.081826

 19 C s       :     2.816044  s :     2.816044
      pz      :     0.914325  p :     2.739093
      px      :     0.909843
      py      :     0.914925
      dz2     :     0.048123  d :     0.311167
      dxz     :     0.058466
      dyz     :     0.048840
      dx2y2   :     0.078160
      dxy     :     0.077576

 20 C s       :     2.816066  s :     2.816066
      pz      :     0.915018  p :     2.739102
      px      :     0.965884
      py      :     0.858200
      dz2     :     0.048255  d :     0.311141
      dxz     :     0.082749
      dyz     :     0.024630
      dx2y2   :     0.077346
      dxy     :     0.078160

 21 C s       :     2.958583  s :     2.958583
      pz      :     1.085826  p :     3.320865
      px      :     1.099989
      py      :     1.135050
      dz2     :     0.010544  d :     0.066765
      dxz     :     0.020519
      dyz     :     0.010913
      dx2y2   :     0.008073
      dxy     :     0.016716

 22 H s       :     0.856399  s :     0.856399

 23 H s       :     0.844114  s :     0.844114

 24 H s       :     0.849457  s :     0.849457

 25 C s       :     2.958616  s :     2.958616
      pz      :     1.086369  p :     3.320771
      px      :     1.129393
      py      :     1.105009
      dz2     :     0.010791  d :     0.066765
      dxz     :     0.015783
      dyz     :     0.015226
      dx2y2   :     0.020045
      dxy     :     0.004922

 26 H s       :     0.849533  s :     0.849533

 27 H s       :     0.856433  s :     0.856433

 28 H s       :     0.844181  s :     0.844181

 29 C s       :     2.958566  s :     2.958566
      pz      :     1.086958  p :     3.320862
      px      :     1.122169
      py      :     1.111734
      dz2     :     0.010280  d :     0.066765
      dxz     :     0.010799
      dyz     :     0.020882
      dx2y2   :     0.009008
      dxy     :     0.015796

 30 H s       :     0.844178  s :     0.844178

 31 H s       :     0.849422  s :     0.849422

 32 H s       :     0.856396  s :     0.856396

 33 C s       :     2.958546  s :     2.958546
      pz      :     1.085775  p :     3.320800
      px      :     1.121980
      py      :     1.113045
      dz2     :     0.011218  d :     0.066771
      dxz     :     0.018186
      dyz     :     0.012218
      dx2y2   :     0.017717
      dxy     :     0.007432

 34 H s       :     0.850026  s :     0.850026

 35 H s       :     0.856102  s :     0.856102

 36 H s       :     0.843911  s :     0.843911

 37 C s       :     2.958586  s :     2.958586
      pz      :     1.086801  p :     3.320798
      px      :     1.099113
      py      :     1.134884
      dz2     :     0.011037  d :     0.066769
      dxz     :     0.018574
      dyz     :     0.011969
      dx2y2   :     0.014910
[...]
 98:   1444.83   0.000640    3.24  0.000138  (-0.009734  0.005513  0.003625)
 99:   1459.93   0.000118    0.60  0.000025  ( 0.000525  0.002171  0.004507)
100:   1460.02   0.002535   12.81  0.000542  (-0.001349  0.001035  0.023216)
101:   1460.05   0.001465    7.40  0.000313  (-0.002382 -0.001295 -0.017484)
102:   1460.13   0.009535   48.18  0.002038  ( 0.000484 -0.001000  0.045128)
103:   1460.25   0.003714   18.77  0.000794  ( 0.000418  0.002907 -0.028020)
104:   1460.33   0.003513   17.75  0.000751  ( 0.002465 -0.001840 -0.027224)
105:   1511.69   0.000334    1.69  0.000069  ( 0.004897  0.006667  0.000778)
106:   1511.78   0.000367    1.86  0.000076  (-0.007338  0.003384 -0.003243)
107:   1517.13   0.179154  905.37  0.036851  ( 0.012038  0.020026 -0.190538)
108:   1517.40   0.098323  496.89  0.020221  ( 0.123452 -0.070571 -0.000426)
109:   1517.51   0.100574  508.26  0.020682  ( 0.069293  0.122029  0.031460)
110:   1526.88   0.000013    0.06  0.000003  (-0.000429 -0.001518  0.000287)
111:   1635.24   0.007666   38.74  0.001463  (-0.000008  0.000182 -0.038248)
112:   1649.16   0.002446   12.36  0.000463  ( 0.018041 -0.011719 -0.000116)
113:   1649.26   0.002464   12.45  0.000466  ( 0.012029  0.017930  0.000241)
114:   1655.49   0.000001    0.01  0.000000  (-0.000151 -0.000163  0.000419)
115:   1751.81   0.244134  1233.75  0.043489  (-0.129546 -0.163422 -0.000668)
116:   1752.01   0.244789  1237.06  0.043601  ( 0.163672 -0.129654  0.001553)
117:   3062.66   0.000110    0.56  0.000011  (-0.001322 -0.003066  0.000320)
118:   3062.73   0.000220    1.11  0.000022  ( 0.000244  0.000044  0.004723)
119:   3063.42   0.000149    0.76  0.000015  ( 0.001055 -0.002098  0.003116)
120:   3063.55   0.000139    0.70  0.000014  ( 0.002447  0.000032 -0.002861)
121:   3063.75   0.000197    0.99  0.000020  ( 0.000301 -0.001934 -0.004024)
122:   3063.77   0.000095    0.48  0.000010  ( 0.002732 -0.000333  0.001462)
123:   3158.14   0.000165    0.83  0.000016  ( 0.002411  0.003125 -0.000863)
124:   3158.22   0.000152    0.77  0.000015  ( 0.003707 -0.000527  0.001006)
125:   3158.33   0.000170    0.86  0.000017  (-0.001165  0.003774  0.001092)
126:   3158.33   0.000150    0.76  0.000015  (-0.000901 -0.003622 -0.000942)
127:   3158.50   0.000197    1.00  0.000020  (-0.003202  0.002760 -0.001282)
128:   3158.67   0.000180    0.91  0.000018  (-0.003741 -0.001390  0.001349)
129:   3194.09   0.000404    2.04  0.000039  (-0.001041 -0.004614 -0.004135)
130:   3194.14   0.000220    1.11  0.000022  (-0.002810  0.002558  0.002663)
131:   3194.23   0.000466    2.35  0.000046  ( 0.004620  0.002164 -0.004413)
132:   3194.25   0.000148    0.75  0.000014  ( 0.000146 -0.003552  0.001342)
133:   3194.31   0.000425    2.15  0.000042  ( 0.003705 -0.003620  0.003832)
134:   3194.36   0.000234    1.18  0.000023  (-0.003936 -0.001598 -0.002184)

* The epsilon (eps) is given for a Dirac delta lineshape.
** The dipole moment derivative (T) already includes vibrational overlap.

The first frequency considered to be a vibration is 6
The total number of vibrations considered is 129


--------------------------
THERMOCHEMISTRY AT 298.15K
--------------------------

Temperature         ...   298.15 K
Pressure            ...     1.00 atm
Total Mass          ...   673.46 AMU
Quasi RRHO          ...     True
Cut-Off Frequency   ...     1.00 cm^-1

Throughout the following assumptions are being made:
  (1) The electronic state is orbitally nondegenerate
  (2) There are no thermally accessible electronically excited states
  (3) Hindered rotations indicated by low frequency modes are not
      treated as such but are treated as vibrations and this may
      cause some error
  (4) All equations used are the standard statistical mechanics
      equations for an ideal gas
  (5) All vibrations are strictly harmonic

freq.      35.02  E(vib)   ...       0.54 
freq.      36.18  E(vib)   ...       0.54 
freq.      37.67  E(vib)   ...       0.54 
freq.      38.56  E(vib)   ...       0.54 
freq.      39.32  E(vib)   ...       0.54 
freq.      41.41  E(vib)   ...       0.54 
freq.      43.02  E(vib)   ...       0.53 
freq.      43.17  E(vib)   ...       0.53 
freq.      52.49  E(vib)   ...       0.52 
freq.      52.66  E(vib)   ...       0.52 
freq.      57.09  E(vib)   ...       0.51 
freq.      57.44  E(vib)   ...       0.51 
freq.      75.14  E(vib)   ...       0.49 
freq.      75.40  E(vib)   ...       0.49 
freq.      82.84  E(vib)   ...       0.48 
freq.     106.22  E(vib)   ...       0.45 
freq.     106.46  E(vib)   ...       0.45 
freq.     111.91  E(vib)   ...       0.45 
freq.     147.03  E(vib)   ...       0.41 
freq.     147.63  E(vib)   ...       0.41 
freq.     149.20  E(vib)   ...       0.40 
freq.     154.71  E(vib)   ...       0.40 
freq.     181.93  E(vib)   ...       0.37 
freq.     182.05  E(vib)   ...       0.37 
freq.     199.30  E(vib)   ...       0.35 
freq.     199.51  E(vib)   ...       0.35 
freq.     206.80  E(vib)   ...       0.35 
freq.     210.44  E(vib)   ...       0.34 
freq.     210.84  E(vib)   ...       0.34 
freq.     221.72  E(vib)   ...       0.33 
freq.     237.39  E(vib)   ...       0.32 
freq.     237.61  E(vib)   ...       0.32 
freq.     238.00  E(vib)   ...       0.32 
freq.     257.49  E(vib)   ...       0.30 
freq.     263.63  E(vib)   ...       0.29 
freq.     263.70  E(vib)   ...       0.29 
freq.     276.91  E(vib)   ...       0.28 
freq.     277.10  E(vib)   ...       0.28 
freq.     283.74  E(vib)   ...       0.28 
freq.     338.64  E(vib)   ...       0.23 
freq.     345.61  E(vib)   ...       0.23 
freq.     346.41  E(vib)   ...       0.23 
freq.     388.23  E(vib)   ...       0.20 
freq.     389.92  E(vib)   ...       0.20 
freq.     401.76  E(vib)   ...       0.19 
freq.     571.60  E(vib)   ...       0.11 
freq.     584.57  E(vib)   ...       0.11 
freq.     584.77  E(vib)   ...       0.11 
freq.     590.60  E(vib)   ...       0.10 
freq.     593.93  E(vib)   ...       0.10 
freq.     594.13  E(vib)   ...       0.10 
freq.     629.03  E(vib)   ...       0.09 
freq.     629.15  E(vib)   ...       0.09 
freq.     633.44  E(vib)   ...       0.09 
freq.     634.71  E(vib)   ...       0.09 
freq.     637.07  E(vib)   ...       0.09 
freq.     637.14  E(vib)   ...       0.09 
freq.     708.70  E(vib)   ...       0.07 
freq.     708.77  E(vib)   ...       0.07 
freq.     714.26  E(vib)   ...       0.07 
freq.     714.36  E(vib)   ...       0.07 
freq.     715.16  E(vib)   ...       0.07 
freq.     718.20  E(vib)   ...       0.07 
freq.     992.53  E(vib)   ...       0.02 
freq.     995.47  E(vib)   ...       0.02 
freq.     995.54  E(vib)   ...       0.02 
freq.     999.41  E(vib)   ...       0.02 
freq.     999.53  E(vib)   ...       0.02 
freq.    1003.54  E(vib)   ...       0.02 
freq.    1044.72  E(vib)   ...       0.02 
freq.    1045.24  E(vib)   ...       0.02 
freq.    1045.35  E(vib)   ...       0.02 
freq.    1045.60  E(vib)   ...       0.02 
freq.    1045.69  E(vib)   ...       0.02 
freq.    1045.73  E(vib)   ...       0.02 
freq.    1065.37  E(vib)   ...       0.02 
freq.    1065.43  E(vib)   ...       0.02 
freq.    1066.80  E(vib)   ...       0.02 
freq.    1067.02  E(vib)   ...       0.02 
freq.    1067.10  E(vib)   ...       0.02 
freq.    1067.98  E(vib)   ...       0.02 
freq.    1374.08  E(vib)   ...       0.01 
freq.    1374.16  E(vib)   ...       0.01 
freq.    1374.94  E(vib)   ...       0.01 
freq.    1374.99  E(vib)   ...       0.01 
freq.    1375.11  E(vib)   ...       0.01 
freq.    1377.09  E(vib)   ...       0.01 
freq.    1444.18  E(vib)   ...       0.00 
freq.    1444.35  E(vib)   ...       0.00 
freq.    1444.43  E(vib)   ...       0.00 
freq.    1444.70  E(vib)   ...       0.00 
freq.    1444.74  E(vib)   ...       0.00 
freq.    1444.83  E(vib)   ...       0.00 
freq.    1459.93  E(vib)   ...       0.00 
freq.    1460.02  E(vib)   ...       0.00 
freq.    1460.05  E(vib)   ...       0.00 
freq.    1460.13  E(vib)   ...       0.00 
freq.    1460.25  E(vib)   ...       0.00 
freq.    1460.33  E(vib)   ...       0.00 
freq.    1511.69  E(vib)   ...       0.00 
freq.    1511.78  E(vib)   ...       0.00 
freq.    1517.13  E(vib)   ...       0.00 
freq.    1517.40  E(vib)   ...       0.00 
freq.    1517.51  E(vib)   ...       0.00 
freq.    1526.88  E(vib)   ...       0.00 
freq.    1635.24  E(vib)   ...       0.00 
freq.    1649.16  E(vib)   ...       0.00 
freq.    1649.26  E(vib)   ...       0.00 
freq.    1655.49  E(vib)   ...       0.00 
freq.    1751.81  E(vib)   ...       0.00 
freq.    1752.01  E(vib)   ...       0.00 
freq.    3062.66  E(vib)   ...       0.00 
freq.    3062.73  E(vib)   ...       0.00 
freq.    3063.42  E(vib)   ...       0.00 
freq.    3063.55  E(vib)   ...       0.00 
freq.    3063.75  E(vib)   ...       0.00 
freq.    3063.77  E(vib)   ...       0.00 
freq.    3158.14  E(vib)   ...       0.00 
freq.    3158.22  E(vib)   ...       0.00 
freq.    3158.33  E(vib)   ...       0.00 
freq.    3158.33  E(vib)   ...       0.00 
freq.    3158.50  E(vib)   ...       0.00 
freq.    3158.67  E(vib)   ...       0.00 
freq.    3194.09  E(vib)   ...       0.00 
freq.    3194.14  E(vib)   ...       0.00 
freq.    3194.23  E(vib)   ...       0.00 
freq.    3194.25  E(vib)   ...       0.00 
freq.    3194.31  E(vib)   ...       0.00 
freq.    3194.36  E(vib)   ...       0.00 

------------
INNER ENERGY
------------

The inner energy is: U= E(el) + E(ZPE) + E(vib) + E(rot) + E(trans)
    E(el)   - is the total energy from the electronic structure calculation
              = E(kin-el) + E(nuc-el) + E(el-el) + E(nuc-nuc)
    E(ZPE)  - the the zero temperature vibrational energy from the frequency calculation
    E(vib)  - the the finite temperature correction to E(ZPE) due to population
              of excited vibrational states
    E(rot)  - is the rotational thermal energy
    E(trans)- is the translational thermal energy

Summary of contributions to the inner energy U:
Electronic energy                ...  -1752.23359182 Eh
Zero point energy                ...      0.31774997 Eh     199.39 kcal/mol
Thermal vibrational correction   ...      0.03125902 Eh      19.62 kcal/mol
Thermal rotational correction    ...      0.00141627 Eh       0.89 kcal/mol
Thermal translational correction ...      0.00141627 Eh       0.89 kcal/mol
-----------------------------------------------------------------------
Total thermal energy                  -1751.88175029 Eh


Summary of corrections to the electronic energy:
(perhaps to be used in another calculation)
Total thermal correction                  0.03409156 Eh      21.39 kcal/mol
Non-thermal (ZPE) correction              0.31774997 Eh     199.39 kcal/mol
-----------------------------------------------------------------------
Total correction                          0.35184153 Eh     220.78 kcal/mol


--------
ENTHALPY
--------

The enthalpy is H = U + kB*T
                kB is Boltzmann's constant
Total thermal energy              ...  -1751.88175029 Eh 
Thermal Enthalpy correction       ...      0.00094421 Eh       0.59 kcal/mol
-----------------------------------------------------------------------
Total Enthalpy                    ...  -1751.88080608 Eh


Note: Only C1 symmetry has been detected, increase convergence thresholds 
      if your molecule has a higher symmetry. Symmetry factor of 1.0 is   
      used for the rotational entropy correction. 
 

Note: Rotational entropy computed according to Herzberg 
Infrared and Raman Spectra, Chapter V,1, Van Nostrand Reinhold, 1945 
Point Group:  C1, Symmetry Number:   1  
Rotational constants in cm-1:     0.004875     0.004873     0.004319 

Vibrational entropy computed according to the QRRHO of S. Grimme
Chem.Eur.J. 2012 18 9955 using a reference frequency of 100.0 cm-1


-------
ENTROPY
-------

The entropy contributions are T*S = T*(S(el)+S(vib)+S(rot)+S(trans))
     S(el)   - electronic entropy
     S(vib)  - vibrational entropy
     S(rot)  - rotational entropy
     S(trans)- translational entropy
The entropies will be listed as multiplied by the temperature to get
units of energy

Electronic entropy                ...      0.00000000 Eh      0.00 kcal/mol
Vibrational entropy               ...      0.05797787 Eh     36.38 kcal/mol
Rotational entropy                ...      0.01710780 Eh     10.74 kcal/mol
Translational entropy             ...      0.02157245 Eh     13.54 kcal/mol
-----------------------------------------------------------------------
Final entropy term                ...      0.09665811 Eh     60.65 kcal/mol

In case the symmetry of your molecule has not been determined correctly
or in case you have a reason to use a different symmetry number we print 
out the resulting rotational entropy values for sn=1,12:

 non-linear molecules -----------------------------------
|  sn= 1 | S(rot)=       0.01710780 Eh     10.74 kcal/mol|
|  sn= 2 | S(rot)=       0.01645334 Eh     10.32 kcal/mol|
|  sn= 3 | S(rot)=       0.01607051 Eh     10.08 kcal/mol|
|  sn= 4 | S(rot)=       0.01579888 Eh      9.91 kcal/mol|
|  sn= 5 | S(rot)=       0.01558820 Eh      9.78 kcal/mol|
|  sn= 6 | S(rot)=       0.01541605 Eh      9.67 kcal/mol|
|  sn= 7 | S(rot)=       0.01527051 Eh      9.58 kcal/mol|
|  sn= 8 | S(rot)=       0.01514443 Eh      9.50 kcal/mol|
|  sn= 9 | S(rot)=       0.01503322 Eh      9.43 kcal/mol|
|  sn=10 | S(rot)=       0.01493374 Eh      9.37 kcal/mol|
|  sn=11 | S(rot)=       0.01484375 Eh      9.31 kcal/mol|
|  sn=12 | S(rot)=       0.01476160 Eh      9.26 kcal/mol|
 linear molecules ---------------------------------------
|  Dinfh | S(rot)=       0.01046652 Eh      6.57 kcal/mol|
|  Cinfv | S(rot)=       0.01112097 Eh      6.98 kcal/mol|
 --------------------------------------------------------


-------------------
GIBBS FREE ENERGY
-------------------

The Gibbs free energy is G = H - T*S

Total enthalpy                    ...  -1751.88080608 Eh 
Total entropy correction          ...     -0.09665811 Eh    -60.65 kcal/mol
-----------------------------------------------------------------------
Final Gibbs free energy         ...  -1751.97746419 Eh

For completeness - the Gibbs free energy minus the electronic energy
G-E(el)                           ...      0.25612763 Eh    160.72 kcal/mol


Maximum memory used throughout the entire PROP-calculation: 312.2 MB

--------------------------------
SUGGESTED CITATIONS FOR THIS RUN
--------------------------------

Below you find a list of papers that are relevant to this ORCA run
We neither can nor want to force you to cite these papers, but we appreciate if you do
You receive ORCA, which is the product of decades of hard work by many enthusiastic individuals, for free
The only thing we kindly ask in return is that you cite our papers,
We deeply appreciate it, if you show your appreciation for ORCA by not just citing the generic ORCA reference.

Please note that relegating all ORCA citations to the supporting information does *not* help us.
SI sections are not indexed - citations you put there will not count into any citation statistics
But we need these citations in order to attract the funding resources that allow us to do what we are doing

Therefore, if you are a happy ORCA user, please consider citing a few of the papers listed below in the main body of your paper

In addition to the list printed below, the program has created the file CS_PdOAc_001_freq_01.bibtex that contains the list in bibtex format
You can import this file easily into all common literature databanks and citation aid programs


List of essential papers. We consider these as the minimum necessary citations

  1. Neese,F.
     Software update: the ORCA program system, version 5.0
     WIRES Comput. Molec. Sci., 2022 12(1)e1606
     doi.org/10.1002/wcms.1606

List of papers to cite with high priority. The work reported in these papers was absolutely
necessary for this run to complete.
Our perspective: the developers of density functionals and basis sets usually get cited in chemistry papers
Good! But without the algorithms to do something with them, the functionals or basis sets would not do anything.
Hence, in our opinion, the algorithm design and method developments papers are equally worthy of getting cited

  1. Neese,F.
     An improvement of the resolution of the identity approximation for the formation of the Coulomb matrix
     J. Comp. Chem., 2003 24(14)1740-1747
     doi.org/10.1002/jcc.10318
  2. Neese,F.; Wennmohs,F.; Hansen,A.; Becker,U.
     Efficient, approximate and parallel Hartree-Fock and hybrid DFT calculations. A 'chain-of-spheres' algorithm for the Hartree-Fock exchange
     Chem. Phys., 2009 356(1-3)98-109
     doi.org/10.1016/j.chemphys.2008.10.036
  3. Bykov,D.; Petrenko,T.; Izsak,R.; Kossmann,S.; Becker,U.; Valeev,E.; Neese,F.
     Efficient implementation of the analytic second derivatives of Hartree-Fock and hybrid DFT energies: a detailed analysis of different approximations
     Molec. Phys., 2015 113 1961-1977
     doi.org/10.1080/00268976.2015.1025114
  4. Helmich-Paris,B.; de Souza,B.; Neese,F.; Izsák,R.
     An improved chain of spheres for exchange algorithm
     J. Chem. Phys., 2021 155 104109
     doi.org/doi: 10.1063/5.0058766.
  5. Neese,F.
     The SHARK Integral Generation and Digestion System
     J. Comp. Chem., 2022  1-16
     doi.org/10.1002/jcc.26942
  6. Grimme,S.; Antony,J.; Ehrlich,S.; Krieg,H.
     A consistent and accurate ab initio parametrization of density functional dispersion correction (DFT-D) for the 94 elements H-Pu
     J. Chem. Phys., 2010 132 154104-XXXX
     doi.org/10.1063/1.3382344
  7. Grimme,S.; Ehrlich,S.; Goerigk,L.
     Effect of the damping function in dispersion corrected density functional theory
     J. Comput. Chem., 2011 32(7)1456-1465
     doi.org/10.1002/jcc.21759

List of suggested additional citations. These are papers that are important in the 'surrounding' of 
of this run, or papers that preceded the highly important papers. If you like your results we are grateful for a citation.

  1. Izsak,R.; Neese,F.
     An overlap fitted chain of spheres exchange method
     J. Chem. Phys., 2011 135 144105
     doi.org/10.1063/1.3646921
  2. Izsak,R.; Hansen,A.; Neese,F.
     The resolution of identity and chain of spheres approximations for the LPNO-CCSD singles Fock term
     Molec. Phys., 2012 110 2413-2417
     doi.org/10.1080/00268976.2012.687466
  3. Neese,F.
     The ORCA program system
     WIRES Comput. Molec. Sci., 2012 2(1)73-78
     doi.org/10.1002/wcms.81
  4. Izsak,R.; Neese,F.; Klopper,W.
     Robust fitting techniques in the chain of spheres approximation to the Fock exchange: The role of the complementary space
     J. Chem. Phys., 2013 139 
     doi.org/10.1063/1.4819264
  5. Neese,F.
     Software update: the ORCA program system, version 4.0
     WIRES Comput. Molec. Sci., 2018 8(1)1-6
     doi.org/10.1002/wcms.1327
  6. Neese,F.; Wennmohs,F.; Becker,U.; Riplinger,C.
     The ORCA quantum chemistry program package
     J. Chem. Phys., 2020 152 Art. No. L224108
     doi.org/10.1063/5.0004608

List of optional additional citations

  1. Neese,F.
     Approximate second-order SCF convergence for spin unrestricted wavefunctions
     Chem. Phys. Lett., 2000 325(1-3)93-98
     doi.org/10.1016/s0009-2614(00)00662-x

Timings for individual modules:

Sum of individual times          ...     1702.224 sec (=  28.370 min)
Startup calculation              ...        9.582 sec (=   0.160 min)   0.6 %
SCF iterations                   ...      195.171 sec (=   3.253 min)  11.5 %
Property integrals               ...      369.050 sec (=   6.151 min)  21.7 %
SCF Response                     ...      668.509 sec (=  11.142 min)  39.3 %
Property calculations            ...      459.913 sec (=   7.665 min)  27.0 %
                             ****ORCA TERMINATED NORMALLY****
TOTAL RUN TIME: 0 days 0 hours 28 minutes 26 seconds 938 msec
