
                                 *****************
                                 * O   R   C   A *
                                 *****************

                                            #,                                       
                                            ###                                      
                                            ####                                     
                                            #####                                    
                                            ######                                   
                                           ########,                                 
                                     ,,################,,,,,                         
                               ,,#################################,,                 
                          ,,##########################################,,             
                       ,#########################################, ''#####,          
                    ,#############################################,,   '####,        
                  ,##################################################,,,,####,       
                ,###########''''           ''''###############################       
              ,#####''   ,,,,##########,,,,          '''####'''          '####       
            ,##' ,,,,###########################,,,                        '##       
           ' ,,###''''                  '''############,,,                           
         ,,##''                                '''############,,,,        ,,,,,,###''
      ,#''                                            '''#######################'''  
     '                                                          ''''####''''         
             ,#######,   #######,   ,#######,      ##                                
            ,#'     '#,  ##    ##  ,#'     '#,    #''#        ,####,   ,####,        
            ##       ##  ##   ,#'  ##            #'  '#       #'       #'  '#        
            ##       ##  #######   ##           ,######,      #####,   #    #        
            '#,     ,#'  ##    ##  '#,     ,#' ,#      #,     #,   #   #,  ,#        
             '#######'   ##     ##  '#######'  #'      '#     '####' # '####'        



                #########################################################
                #                        -***-                          #
                #          Department of theory and spectroscopy        #
                #                                                       #
                #                      Frank Neese                      #
                #                                                       #
                #     Directorship, Architecture, Infrastructure        #
                #                    SHARK, DRIVERS                     #
                #        Core code/Algorithms in most modules           #
                #                                                       #
                #        Max Planck Institute fuer Kohlenforschung      #
                #                Kaiser Wilhelm Platz 1                 #
                #                 D-45470 Muelheim/Ruhr                 #
                #                      Germany                          #
                #                                                       #
                #                  All rights reserved                  #
                #                        -***-                          #
                #########################################################


                         Program Version 6.0.0  -   RELEASE  -


 With contributions from (in alphabetic order):
   Daniel Aravena         : Magnetic Suceptibility
   Michael Atanasov       : Ab Initio Ligand Field Theory (pilot matlab implementation)
   Alexander A. Auer      : GIAO ZORA, VPT2 properties, NMR spectrum
   Ute Becker             : All parallelization in ORCA, NUMFREQ, NUMCALC
   Giovanni Bistoni       : ED, misc. LED, open-shell LED, HFLD
   Martin Brehm           : Molecular dynamics
   Dmytro Bykov           : pre 5.0 version of the SCF Hessian
   Marcos Casanova-Páez   : Triplet and SCS-CIS(D). UHF-(DLPNO)-IP/EA/STEOM-CCSD. UHF-CVS-IP/STEOM-CCSD
   Vijay G. Chilkuri      : MRCI spin determinant printing, contributions to CSF-ICE
   Pauline Colinet        : FMM embedding
   Dipayan Datta          : RHF DLPNO-CCSD density
   Achintya Kumar Dutta   : EOM-CC, STEOM-CC
   Nicolas Foglia         : Exact transition moments, OPA infrastructure, MCD improvements
   Dmitry Ganyushin       : Spin-Orbit,Spin-Spin,Magnetic field MRCI
   Miquel Garcia          : C-PCM and meta-GGA Hessian, CCSD/C-PCM, Gaussian charge scheme
   Tiago L. C. Gouveia    : GS-ROHF, GS-ROCIS
   Yang Guo               : DLPNO-NEVPT2, F12-NEVPT2, CIM, IAO-localization
   Andreas Hansen         : Spin unrestricted coupled pair/coupled cluster methods
   Ingolf Harden          : AUTO-CI MPn and infrastructure 
   Benjamin Helmich-Paris : MC-RPA, TRAH-(SCF,CASSCF), AVAS, COSX integrals, SCF dyn. polar.
   Lee Huntington         : MR-EOM, pCC
   Robert Izsak           : Overlap fitted RIJCOSX, COSX-SCS-MP3, EOM
   Riya Kayal             : Wick's Theorem for AUTO-CI, AUTO-CI UHF-CCSDT
   Emily Kempfer          : AUTO-CI, RHF CISDT and CCSDT
   Christian Kollmar      : KDIIS, OOCD, Brueckner-CCSD(T), CCSD density, CASPT2, CASPT2-K, improved NEVPT2
   Axel Koslowski         : Symmetry handling
   Simone Kossmann        : Meta GGA functionals, TD-DFT gradient, OOMP2, (MP2 Hessian; deprecated post 5.0)
   Lucas Lang             : DCDCAS
   Marvin Lechner         : AUTO-CI (C++ implementation), FIC-MRCC
   Spencer Leger          : CASSCF response
   Dagmar Lenk            : GEPOL surface, SMD, ORCA-2-JSON
   Dimitrios Liakos       : Extrapolation schemes; Compound Job, initial MDCI parallelization
   Dimitrios Manganas     : Further ROCIS development; embedding schemes. LFT, Crystal Embedding
   Dimitrios Pantazis     : SARC Basis sets
   Anastasios Papadopoulos: AUTO-CI, single reference methods and gradients
   Taras Petrenko         : pre 6.0 DFT Hessian and TD-DFT gradient, (ASA, deprecated), ECA, 1-Electron XAS/XES, NRVS
   Peter Pinski           : DLPNO-MP2, DLPNO-MP2 Gradient
   Christoph Reimann      : Effective Core Potentials
   Marius Retegan         : Local ZFS, SOC
   Christoph Riplinger    : Optimizer, TS searches, QM/MM, DLPNO-CCSD(T), (RO)-DLPNO pert. Triples
   Michael Roemelt        : Original ROCIS implementation
   Masaaki Saitow         : Open-shell DLPNO-CCSD energy and density
   Barbara Sandhoefer     : DKH picture change effects
   Kantharuban Sivalingam : CASSCF convergence/infrastructure, NEVPT2 and variants, FIC-MRCI
   Bernardo de Souza      : ESD, SOC TD-DFT
   Georgi Stoychev        : AutoAux, RI-MP2 NMR, DLPNO-MP2 response, X2C
   Van Anh Tran           : RI-MP2 g-tensors
   Willem Van den Heuvel  : Paramagnetic NMR
   Zikuan Wang            : NOTCH, Electric field optimization 
   Frank Wennmohs         : Technical directorship and infrastructure
   Hang Xu                : AUTO-CI-Response properties 


 We gratefully acknowledge several colleagues who have allowed us to
 interface, adapt or use parts of their codes:
   Stefan Grimme, W. Hujo, H. Kruse, P. Pracht,  : VdW corrections, initial TS optimization,
                  C. Bannwarth, S. Ehlert,         DFT functionals, gCP, sTDA/sTD-DF
                  L. Wittmann, M. Mueller
   Ed Valeev, F. Pavosevic, A. Kumar             : LibInt (2-el integral package), F12 methods
   Garnet Chan, S. Sharma, J. Yang, R. Olivares  : DMRG
   Ulf Ekstrom                                   : XCFun DFT Library
   Mihaly Kallay                                 : mrcc  (arbitrary order and MRCC methods)
   Frank Weinhold                                : gennbo (NPA and NBO analysis)
   Simon Mueller                                 : openCOSMO-RS
   Christopher J. Cramer and Donald G. Truhlar   : smd solvation model
   Lars Goerigk                                  : TD-DFT with DH, B97 family of functionals
   V. Asgeirsson, H. Jonsson                     : NEB implementation
   FAccTs GmbH                                   : IRC, NEB, NEB-TS, DLPNO-Multilevel, CI-OPT
                                                   MM, QMMM, 2- and 3-layer-ONIOM, Crystal-QMMM,
                                                   LR-CPCM, SF, NACMEs, symmetry and pop. for TD-DFT,
                                                   nearIR, NL-DFT gradient (VV10), updates on ESD,
                                                   ML-optimized integration grids, MBIS, APM,
                                                   GOAT, DOCKER, SOLVATOR, interface openCOSMO-RS
   S Lehtola, MJT Oliveira, MAL Marques          : LibXC Library
   Liviu Ungur et al                             : ANISO software


 Your calculation uses the libint2 library for the computation of 2-el integrals
 For citations please refer to: http://libint.valeyev.net

 Your ORCA version has been built with support for libXC version: 6.2.2
 For citations please refer to: https://libxc.gitlab.io

 This ORCA versions uses:
   CBLAS   interface :  Fast vector & matrix operations
   LAPACKE interface :  Fast linear algebra routines
   SCALAPACK package :  Parallel linear algebra routines
   Shared memory     :  Shared parallel matrices
   BLAS/LAPACK       :  OpenBLAS 0.3.27  USE64BITINT DYNAMIC_ARCH NO_AFFINITY Sandybridge SINGLE_THREADED
        Core in use  :  Sandybridge
   Copyright (c) 2011-2014, The OpenBLAS Project


NOTE: MaxCore=3500 MB was set to SCF,MP2,MDCI,CIPSI,MRCI and CIS
      => If you want to overwrite this, your respective input block should be placed after the MaxCore statement
Your calculation utilizes the atom-pairwise dispersion correction
with the Becke-Johnson damping scheme (D3BJ)


Warning: RI is on but no J-basis has been assigned. Assigning Def2/J (nothing to worry about!)
================================================================================

cite the ECPs for Pd [Def2-ECP] as follows:
Ce-Yb(ecp-28): M. Dolg, H. Stoll, H.Preuss, J. Chem. Phys., 1989, 90, 1730-1734.
Y-Cd(ecp-28), Hf-Hg(ecp-46): D. Andrae,U. Haeussermann, M. Dolg, H. Stoll, H. Preuss, Theor. Chim. Acta, 1990, 77, 123-141.
In-Sb(ecp-28), Tl-Bi(ecp-46): B. Metz, H. Stoll, M. Dolg, J. Chem. Phys., 2000, 113, 2563-2569.
Te-Xe(ecp-28), Po-Rn(ecp-46): K. A. Peterson, D. Figgen, E. Goll, H. Stoll, M. Dolg, J. Chem. Phys., 2003, 119, 11113-11123.
Rb(ecp-28), Cs(ecp-46): T. Leininger, A. Nicklass, W. Kuechle, H. Stoll, M. Dolg, A. Bergner, Chem. Phys. Lett., 1996, 255, 274-280.
Sr(ecp-28), Ba(ecp-46): M. Kaupp, P. V. Schleyer, H. Stoll and H. Preuss, J. Chem. Phys., 1991, 94, 1360-1366.
La(ecp-46): M. Dolg, H. Stoll, A. Savin, H. Preuss, Theor. Chim. Acta, 1989, 75, 173-194.
Lu(ecp-28): X. Cao, M. Dolg, J. Chem. Phys., 2001, 115, 7348-7355.

ECP parameters for Pd [Def2-ECP] have been obtained from:
TURBOMOLE (7.0.2)

----- Orbital basis set information -----
Your calculation utilizes the basis: def2-TZVP
   F. Weigend and R. Ahlrichs, Phys. Chem. Chem. Phys. 7, 3297 (2005).

----- AuxJ basis set information -----
Your calculation utilizes the auxiliary basis: def2/J
   F. Weigend, Phys. Chem. Chem. Phys. 8, 1057 (2006).

================================================================================
                                        WARNINGS
                       Please study these warnings very carefully!
================================================================================


================================================================================
                                       INPUT FILE
================================================================================
NAME = CS_PdOAc_003_sp_01.inp
|  1> !TPSSh def2-TZVP d3 TightSCF SlowConv RIJCOSX defgrid2
|  2> 
|  3> %pal
|  4> nprocs 16
|  5> end
|  6> 
|  7> %scf
|  8> MaxIter 1500
|  9> end
| 10> 
| 11> %maxcore 3500
| 12> 
| 13>  
| 14> 
| 15> * xyz -2 1
| 16>   Pd         -0.58859675474001      1.79069386988636      0.12525051881718
| 17>   O          -0.56312094691235      1.91643518477727     -1.91576266457436
| 18>   O           1.23773995991805      0.62626629361198     -2.35413883147574
| 19>   C           0.23646665555799      1.30841383567401     -2.66710874994333
| 20>   C          -0.02550837097319      1.44069674359657     -4.15587262637452
| 21>   H          -1.06674245939244      1.74180494896657     -4.34713597427350
| 22>   H           0.65379799036240      2.21452114823411     -4.55485166974199
| 23>   H           0.20918360744538      0.49280171799062     -4.66591205188907
| 24>   O          -0.29964826462258      3.77656776653293      0.21229542481214
| 25>   C          -1.29484101105228      4.58780479355271      0.15445475105350
| 26>   O          -2.48079441703085      4.31989642827978      0.03588215814912
| 27>   C          -0.83021832242902      6.04307906777114      0.25897333100322
| 28>   H          -0.08123947616209      6.25515935032835     -0.52325769893691
| 29>   H          -0.33359233772107      6.20329427569995      1.23180401677016
| 30>   H          -1.68905068599482      6.72621418918916      0.15897454019075
| 31>   O           3.44559011185834      2.00815674577063     -1.35551587102128
| 32>   Pd          2.25811503585100      0.60878190020572     -0.55809603411925
| 33>   O           4.51631426078922      3.93251528911954     -1.44753792406341
| 34>   C           3.73783441960455      3.17895243316367     -0.87536723793387
| 35>   H           1.97092402956651      3.71472004404809      0.26370166685263
| 36>   H           3.19201931924132      2.81680309631642      1.18524755967677
| 37>   C           3.05953325431406      3.59603297706349      0.41651102705983
| 38>   H           3.48564226500261      4.55481850360381      0.75607169673751
| 39>   O           1.17857294666871     -1.00974837703236      0.09728951430900
| 40>   C          -0.06568877503068     -1.10507134606857      0.18480944075761
| 41>   O          -0.92971201872185     -0.21240831522995     -0.02163213779956
| 42>   C          -0.61136353768528     -2.45208603241951      0.59724750560615
| 43>   H          -1.56722528777243     -2.65293522994513      0.08704433559233
| 44>   H           0.11862361036096     -3.25261574486518      0.40180365427404
| 45>   H          -0.79925876993274     -2.37024642628049      1.68135817694909
| 46>   O          -0.73939001544079      1.87105904457396      2.13434343056366
| 47>   C          -0.63541941199753      0.93778843558271      3.00819351903202
| 48>   O          -0.49203281331882     -0.26569638190006      2.84627546355495
| 49>   C          -0.68587444820057      1.50836658829373      4.43087250429646
| 50>   H          -1.51697420057274      2.22673524825013      4.53232097543007
| 51>   H          -0.78854077426807      0.69240863048125      5.16465466824389
| 52>   H           0.25114074900571      2.05935015995783      4.62695687727219
| 53>   O           3.30906709905053      0.56732564307542      1.15221593376544
| 54>   C           4.28950705775774     -0.25613003748045      1.28657995816729
| 55>   O           4.71437635957796     -1.06211865508199      0.47517533141923
| 56>   C           4.94107320973044     -0.11815076399701      2.66528150570845
| 57>   H           5.38497351128896      0.88825821148745      2.76265988277769
| 58>   H           4.17672043179701     -0.21724854339394      3.45471460204888
| 59>   H           5.72461305022212     -0.88215029639157      2.79440139825553
| 60> *
| 61> 
| 62>                          ****END OF INPUT****
================================================================================

                       ****************************
                       * Single Point Calculation *
                       ****************************

---------------------------------
CARTESIAN COORDINATES (ANGSTROEM)
---------------------------------
  Pd    -0.588597    1.790694    0.125251
  O     -0.563121    1.916435   -1.915763
  O      1.237740    0.626266   -2.354139
  C      0.236467    1.308414   -2.667109
  C     -0.025508    1.440697   -4.155873
  H     -1.066742    1.741805   -4.347136
  H      0.653798    2.214521   -4.554852
  H      0.209184    0.492802   -4.665912
  O     -0.299648    3.776568    0.212295
  C     -1.294841    4.587805    0.154455
  O     -2.480794    4.319896    0.035882
  C     -0.830218    6.043079    0.258973
  H     -0.081239    6.255159   -0.523258
  H     -0.333592    6.203294    1.231804
  H     -1.689051    6.726214    0.158975
  O      3.445590    2.008157   -1.355516
  Pd     2.258115    0.608782   -0.558096
  O      4.516314    3.932515   -1.447538
  C      3.737834    3.178952   -0.875367
  H      1.970924    3.714720    0.263702
  H      3.192019    2.816803    1.185248
  C      3.059533    3.596033    0.416511
  H      3.485642    4.554819    0.756072
  O      1.178573   -1.009748    0.097290
  C     -0.065689   -1.105071    0.184809
  O     -0.929712   -0.212408   -0.021632
  C     -0.611364   -2.452086    0.597248
  H     -1.567225   -2.652935    0.087044
  H      0.118624   -3.252616    0.401804
  H     -0.799259   -2.370246    1.681358
  O     -0.739390    1.871059    2.134343
  C     -0.635419    0.937788    3.008194
  O     -0.492033   -0.265696    2.846275
  C     -0.685874    1.508367    4.430873
  H     -1.516974    2.226735    4.532321
  H     -0.788541    0.692409    5.164655
  H      0.251141    2.059350    4.626957
  O      3.309067    0.567326    1.152216
  C      4.289507   -0.256130    1.286580
  O      4.714376   -1.062119    0.475175
  C      4.941073   -0.118151    2.665282
  H      5.384974    0.888258    2.762660
  H      4.176720   -0.217249    3.454715
  H      5.724613   -0.882150    2.794401

----------------------------
CARTESIAN COORDINATES (A.U.)
----------------------------
  NO LB      ZA    FRAG     MASS         X           Y           Z
   0 Pd   18.0000*   0   106.400   -1.112287    3.383921    0.236689
   1 O     8.0000    0    15.999   -1.064144    3.621538   -3.620267
   2 O     8.0000    0    15.999    2.338990    1.183472   -4.448678
   3 C     6.0000    0    12.011    0.446857    2.472544   -5.040105
   4 C     6.0000    0    12.011   -0.048204    2.722522   -7.853461
   5 H     1.0000    0     1.008   -2.015851    3.291534   -8.214896
   6 H     1.0000    0     1.008    1.235499    4.184838   -8.607422
   7 H     1.0000    0     1.008    0.395300    0.931260   -8.817296
   8 O     8.0000    0    15.999   -0.566253    7.136679    0.401180
   9 C     6.0000    0    12.011   -2.446895    8.669695    0.291877
  10 O     8.0000    0    15.999   -4.688022    8.163421    0.067807
  11 C     6.0000    0    12.011   -1.568885   11.419764    0.489389
  12 H     1.0000    0     1.008   -0.153520   11.820538   -0.988814
  13 H     1.0000    0     1.008   -0.630398   11.722527    2.327772
  14 H     1.0000    0     1.008   -3.191843   12.710703    0.300418
  15 O     8.0000    0    15.999    6.511222    3.794866   -2.561554
  16 Pd   18.0000*   0   106.400    4.267219    1.150431   -1.054649
  17 O     8.0000    0    15.999    8.534597    7.431377   -2.735450
  18 C     6.0000    0    12.011    7.063483    6.007349   -1.654204
  19 H     1.0000    0     1.008    3.724507    7.019804    0.498324
  20 H     1.0000    0     1.008    6.032042    5.322986    2.239793
  21 C     6.0000    0    12.011    5.781680    6.795517    0.787092
  22 H     1.0000    0     1.008    6.586909    8.607360    1.428768
  23 O     8.0000    0    15.999    2.227180   -1.908148    0.183851
  24 C     6.0000    0    12.011   -0.124134   -2.088282    0.349239
  25 O     8.0000    0    15.999   -1.756901   -0.401394   -0.040879
  26 C     6.0000    0    12.011   -1.155310   -4.633771    1.128634
  27 H     1.0000    0     1.008   -2.961627   -5.013321    0.164490
  28 H     1.0000    0     1.008    0.224166   -6.146553    0.759299
  29 H     1.0000    0     1.008   -1.510380   -4.479117    3.177306
  30 O     8.0000    0    15.999   -1.397245    3.535789    4.033325
  31 C     6.0000    0    12.011   -1.200769    1.772163    5.684662
  32 O     8.0000    0    15.999   -0.929807   -0.502093    5.378681
  33 C     6.0000    0    12.011   -1.296115    2.850400    8.373136
  34 H     1.0000    0     1.008   -2.866666    4.207920    8.564845
  35 H     1.0000    0     1.008   -1.490126    1.308463    9.759783
  36 H     1.0000    0     1.008    0.474587    3.891608    8.743681
  37 O     8.0000    0    15.999    6.253231    1.072090    2.177373
  38 C     6.0000    0    12.011    8.105994   -0.484016    2.431284
  39 O     8.0000    0    15.999    8.908880   -2.007113    0.897951
  40 C     6.0000    0    12.011    9.337275   -0.223273    5.036652
  41 H     1.0000    0     1.008   10.176125    1.678565    5.220671
  42 H     1.0000    0     1.008    7.892858   -0.410540    6.528464
  43 H     1.0000    0     1.008   10.817951   -1.667022    5.280653
* core charge reduced due to ECP

--------------------------------
INTERNAL COORDINATES (ANGSTROEM)
--------------------------------
 Pd     0   0   0     0.000000000000     0.00000000     0.00000000
 O      1   0   0     2.045041493426     0.00000000     0.00000000
 O      2   1   0     2.258275766417    99.70318861     0.00000000
 C      3   2   1     1.251328761370    25.71231414   173.65123281
 C      4   3   2     1.517414762687   115.53462256   178.53813247
 H      5   4   3     1.100643560140   110.95711151   160.72493031
 H      5   4   3     1.104285116630   108.02089197   280.28563346
 H      5   4   3     1.101692116647   110.02521523    37.64078688
 O      1   2   3     2.008671993876    88.89235231   117.94145508
 C      9   1   2     1.285246925729   120.70987299    85.71642753
 O     10   9   1     1.221605432668   128.14579199   359.37036056
 C     10   9   1     1.531215722732   111.21449559   179.21981034
 H     12  10   9     1.103554594302   109.88929985    55.58666290
 H     12  10   9     1.103950100643   109.54737362   298.37242404
 H     12  10   9     1.101937557662   110.27387186   177.27663900
 O      3   2   1     2.789528872827   106.17987328   292.60899137
 Pd    16   3   2     2.001056073883    47.66571734    92.95537647
 O     16   3   2     2.204103914227   143.32666057   304.73167910
 C     18  16   3     1.225262067916    30.10497358   100.28599090
 H     19  18  16     2.169446295521   127.64517430   214.72425232
 H     20  19  18     1.773858896325    65.61323877   239.24904380
 C     21  20  19     1.102591320948    36.61453387    38.50596906
 H     22  21  20     1.102787388069   110.69141956   118.87824955
 O     17  16   3     2.052944616336   172.14147883    75.47918268
 C     24  17  16     1.250972996526   127.26043906   228.81702207
 O     25  24  17     1.259365545670   128.09139361   354.88321002
 C     25  24  17     1.510733156179   116.50667507   175.30394379
 H     27  25  24     1.101961596481   110.45203993   214.82378585
 H     27  25  24     1.100875722252   111.12437107   338.63740259
 H     27  25  24     1.103312415934   105.28548292    97.64379879
 O      1   2   3     2.016346075654   173.17854596   157.90484341
 C     31   1   9     1.282738435186   130.07033396   198.37571821
 O     32  31   1     1.222764441453   129.44853626   355.31987452
 C     32  31   1     1.533662490296   111.01390151   174.23677634
 H     34  32  31     1.103209917602   110.63068741    46.75638473
 H     34  32  31     1.102163339779   110.19548851   169.28606693
 H     34  32  31     1.104549436361   108.80525706   289.07787242
 O     17  16   3     2.007831140283    92.48025806   178.12206767
 C     38  17  16     1.287398718938   120.04857977   268.98675397
 O     39  38  17     1.220044689198   128.19568330     0.73471716
 C     39  38  17     1.531141628818   111.12578454   180.20091192
 H     41  39  38     1.104259503912   109.42655503   296.13403622
 H     41  39  38     1.103295133957   109.96094390    53.74331444
 H     41  39  38     1.101953680419   110.21904576   175.52029009

---------------------------
INTERNAL COORDINATES (A.U.)
---------------------------
 Pd     0   0   0     0.000000000000     0.00000000     0.00000000
 O      1   0   0     3.864568355080     0.00000000     0.00000000
 O      2   1   0     4.267522733400    99.70318861     0.00000000
 C      3   2   1     2.364668662488    25.71231414   173.65123281
 C      4   3   2     2.867498333048   115.53462256   178.53813247
 H      5   4   3     2.079914899728   110.95711151   160.72493031
 H      5   4   3     2.086796444196   108.02089197   280.28563346
 H      5   4   3     2.081896384363   110.02521523    37.64078688
 O      1   2   3     3.795839961304    88.89235231   117.94145508
 C      9   1   2     2.428764704091   120.70987299    85.71642753
 O     10   9   1     2.308499711452   128.14579199   359.37036056
 C     10   9   1     2.893578367917   111.21449559   179.21981034
 H     12  10   9     2.085415957062   109.88929985    55.58666290
 H     12  10   9     2.086163355729   109.54737362   298.37242404
 H     12  10   9     2.082360200664   110.27387186   177.27663900
 O      3   2   1     5.271445612310   106.17987328   292.60899137
 Pd    16   3   2     3.781447958258    47.66571734    92.95537647
 O     16   3   2     4.165152768592   143.32666057   304.73167910
 C     18  16   3     2.315409750643    30.10497358   100.28599090
 H     19  18  16     4.099659360784   127.64517430   214.72425232
 H     20  19  18     3.352107514274    65.61323877   239.24904380
 C     21  20  19     2.083595634229    36.61453387    38.50596906
 H     22  21  20     2.083966147394   110.69141956   118.87824955
 O     17  16   3     3.879503092982   172.14147883    75.47918268
 C     24  17  16     2.363996364365   127.26043906   228.81702207
 O     25  24  17     2.379855983813   128.09139361   354.88321002
 C     25  24  17     2.854871926613   116.50667507   175.30394379
 H     27  25  24     2.082405627447   110.45203993   214.82378585
 H     27  25  24     2.080353622540   111.12437107   338.63740259
 H     27  25  24     2.084958306270   105.28548292    97.64379879
 O      1   2   3     3.810341874193   173.17854596   157.90484341
 C     31   1   9     2.424024343956   130.07033396   198.37571821
 O     32  31   1     2.310689920643   129.44853626   355.31987452
 C     32  31   1     2.898202088528   111.01390151   174.23677634
 H     34  32  31     2.084764612494   110.63068741    46.75638473
 H     34  32  31     2.082786867031   110.19548851   169.28606693
 H     34  32  31     2.087295936099   108.80525706   289.07787242
 O     17  16   3     3.794250978293    92.48025806   178.12206767
 C     38  17  16     2.432831003954   120.04857977   268.98675397
 O     39  38  17     2.305550333730   128.19568330     0.73471716
 C     39  38  17     2.893438350712   111.12578454   180.20091192
 H     41  39  38     2.086748043173   109.42655503   296.13403622
 H     41  39  38     2.084925648067   109.96094390    53.74331444
 H     41  39  38     2.082390668258   110.21904576   175.52029009

---------------------
BASIS SET INFORMATION
---------------------
There are 4 groups of distinct atoms

 Group   1 Type Pd  : 7s7p6d1f contracted to 6s4p3d1f pattern {211111/4111/411/1}
 Group   2 Type O   : 11s6p2d1f contracted to 5s3p2d1f pattern {62111/411/11/1}
 Group   3 Type C   : 11s6p2d1f contracted to 5s3p2d1f pattern {62111/411/11/1}
 Group   4 Type H   : 5s1p contracted to 3s1p pattern {311/1}

Atom   0Pd   basis set group =>   1
Atom   1O    basis set group =>   2
Atom   2O    basis set group =>   2
Atom   3C    basis set group =>   3
Atom   4C    basis set group =>   3
Atom   5H    basis set group =>   4
Atom   6H    basis set group =>   4
Atom   7H    basis set group =>   4
Atom   8O    basis set group =>   2
Atom   9C    basis set group =>   3
Atom  10O    basis set group =>   2
Atom  11C    basis set group =>   3
Atom  12H    basis set group =>   4
Atom  13H    basis set group =>   4
Atom  14H    basis set group =>   4
Atom  15O    basis set group =>   2
Atom  16Pd   basis set group =>   1
Atom  17O    basis set group =>   2
Atom  18C    basis set group =>   3
Atom  19H    basis set group =>   4
Atom  20H    basis set group =>   4
Atom  21C    basis set group =>   3
Atom  22H    basis set group =>   4
Atom  23O    basis set group =>   2
Atom  24C    basis set group =>   3
Atom  25O    basis set group =>   2
Atom  26C    basis set group =>   3
Atom  27H    basis set group =>   4
Atom  28H    basis set group =>   4
Atom  29H    basis set group =>   4
Atom  30O    basis set group =>   2
Atom  31C    basis set group =>   3
Atom  32O    basis set group =>   2
Atom  33C    basis set group =>   3
Atom  34H    basis set group =>   4
Atom  35H    basis set group =>   4
Atom  36H    basis set group =>   4
Atom  37O    basis set group =>   2
Atom  38C    basis set group =>   3
Atom  39O    basis set group =>   2
Atom  40C    basis set group =>   3
Atom  41H    basis set group =>   4
Atom  42H    basis set group =>   4
Atom  43H    basis set group =>   4
---------------------------------
AUXILIARY/J BASIS SET INFORMATION
---------------------------------
There are 4 groups of distinct atoms

 Group   1 Type Pd  : 11s5p5d3f3g contracted to 8s5p5d2f3g pattern {41111111/11111/11111/21/111}
 Group   2 Type O   : 12s5p4d2f1g contracted to 6s4p3d1f1g pattern {711111/2111/211/2/1}
 Group   3 Type C   : 12s5p4d2f1g contracted to 6s4p3d1f1g pattern {711111/2111/211/2/1}
 Group   4 Type H   : 5s2p1d contracted to 3s1p1d pattern {311/2/1}

Atom   0Pd   basis set group =>   1
Atom   1O    basis set group =>   2
Atom   2O    basis set group =>   2
Atom   3C    basis set group =>   3
Atom   4C    basis set group =>   3
Atom   5H    basis set group =>   4
Atom   6H    basis set group =>   4
Atom   7H    basis set group =>   4
Atom   8O    basis set group =>   2
Atom   9C    basis set group =>   3
Atom  10O    basis set group =>   2
Atom  11C    basis set group =>   3
Atom  12H    basis set group =>   4
Atom  13H    basis set group =>   4
Atom  14H    basis set group =>   4
Atom  15O    basis set group =>   2
Atom  16Pd   basis set group =>   1
Atom  17O    basis set group =>   2
Atom  18C    basis set group =>   3
Atom  19H    basis set group =>   4
Atom  20H    basis set group =>   4
Atom  21C    basis set group =>   3
Atom  22H    basis set group =>   4
Atom  23O    basis set group =>   2
Atom  24C    basis set group =>   3
Atom  25O    basis set group =>   2
Atom  26C    basis set group =>   3
Atom  27H    basis set group =>   4
Atom  28H    basis set group =>   4
Atom  29H    basis set group =>   4
Atom  30O    basis set group =>   2
Atom  31C    basis set group =>   3
Atom  32O    basis set group =>   2
Atom  33C    basis set group =>   3
Atom  34H    basis set group =>   4
Atom  35H    basis set group =>   4
Atom  36H    basis set group =>   4
Atom  37O    basis set group =>   2
Atom  38C    basis set group =>   3
Atom  39O    basis set group =>   2
Atom  40C    basis set group =>   3
Atom  41H    basis set group =>   4
Atom  42H    basis set group =>   4
Atom  43H    basis set group =>   4
-------------------------
ECP PARAMETER INFORMATION
-------------------------

 Group 1, Type Pd ECP Def2-ECP (replacing 28 core electrons, lmax=3)

Atom   0Pd   ECP group =>   1
Atom  16Pd   ECP group =>   1



           ************************************************************
           *        Program running with 16 parallel MPI-processes    *
           *              working on a common directory               *
           ************************************************************
------------------------------------------------------------------------------
                             ORCA STARTUP CALCULATIONS
                           -- RI-GTO INTEGRALS CHOSEN --
------------------------------------------------------------------------------
------------------------------------------------------------------------------
                   ___                                                        
                  /   \      - P O W E R E D   B Y -                         
                 /     \                                                     
                 |  |  |   _    _      __       _____    __    __             
                 |  |  |  | |  | |    /  \     |  _  \  |  |  /  |          
                  \  \/   | |  | |   /    \    | | | |  |  | /  /          
                 / \  \   | |__| |  /  /\  \   | |_| |  |  |/  /          
                |  |  |   |  __  | /  /__\  \  |    /   |      \           
                |  |  |   | |  | | |   __   |  |    \   |  |\   \          
                \     /   | |  | | |  |  |  |  | |\  \  |  | \   \       
                 \___/    |_|  |_| |__|  |__|  |_| \__\ |__|  \__/        
                                                                              
                      - O R C A' S   B I G   F R I E N D -                    
                                      &                                       
                       - I N T E G R A L  F E E D E R -                       
                                                                              
 v1 FN, 2020, v2 2021, v3 2022-2024                                           
------------------------------------------------------------------------------


----------------------
SHARK INTEGRAL PACKAGE
----------------------

Number of atoms                             ...     44
Number of basis functions                   ...    932
Number of shells                            ...    364
Maximum angular momentum                    ...      3
Integral batch strategy                     ... SHARK/LIBINT Hybrid
RI-J (if used) integral strategy            ... SPLIT-RIJ (Revised 2003 algorithm where possible)
Printlevel                                  ...      1
Contraction scheme used                     ... SEGMENTED contraction
Prescreening option                         ... SCHWARTZ
   Thresh                                   ... 2.500e-11
   Tcut                                     ... 2.500e-12
   Tpresel                                  ... 2.500e-12 
Coulomb Range Separation                    ... NOT USED
Exchange Range Separation                   ... NOT USED
Multipole approximations                    ... NOT USED
Finite Nucleus Model                        ... NOT USED
CABS basis                                  ... NOT available
Auxiliary Coulomb fitting basis             ... AVAILABLE
   # of basis functions in Aux-J            ...   1552
   # of shells in Aux-J                     ...    496
   Maximum angular momentum in Aux-J        ...      4
Auxiliary J/K fitting basis                 ... NOT available
Auxiliary Correlation fitting basis         ... NOT available
Auxiliary 'external' fitting basis          ... NOT available

Checking pre-screening integrals            ... done (  0.1 sec) Dimension = 364
Check shell pair data                       ... done (  0.8 sec)
Shell pair information
Shell pair cut-off parameter TPreSel        ...   2.5e-12
Total number of shell pairs                 ...     66430
Shell pairs after pre-screening             ...     42079
Total number of primitive shell pairs       ...    199373
Primitive shell pairs kept                  ...     80371
          la=0 lb=0:  10535 shell pairs
          la=1 lb=0:  12307 shell pairs
          la=1 lb=1:   3586 shell pairs
          la=2 lb=0:   6076 shell pairs
          la=2 lb=1:   3620 shell pairs
          la=2 lb=2:    928 shell pairs
          la=3 lb=0:   2550 shell pairs
          la=3 lb=1:   1564 shell pairs
          la=3 lb=2:    761 shell pairs
          la=3 lb=3:    152 shell pairs

Calculating one electron integrals          ... done (  0.1 sec)
Calculating ECP integrals                   ... done (  4.1 sec)
Calculating RI/J V-Matrix + Cholesky decomp.... done (  0.2 sec)
Calculating Nuclear repulsion               ... done (  0.0 sec) ENN=   3254.998431094849 Eh

Diagonalization of the overlap matrix:
Smallest eigenvalue                        ... 2.231e-04
Time for diagonalization                   ...    0.345 sec
Threshold for overlap eigenvalues          ... 1.000e-07
Number of eigenvalues below threshold      ... 0
Time for construction of square roots      ...    0.216 sec
Total time needed                          ...    0.626 sec

-------------------
DFT GRID GENERATION
-------------------

General Integration Accuracy     IntAcc      ... 4.388
Radial Grid Type                 RadialGrid  ... OptM3 with GC (2021)
Angular Grid (max. ang.)         AngularGrid ... 4 (Lebedev-302)
Angular grid pruning method      GridPruning ... 4 (adaptive)
Weight generation scheme         WeightScheme... mBecke (2022)
Basis function cutoff            BFCut       ... 1.0000e-11
Integration weight cutoff        WCut        ... 1.0000e-14
Partially contracted basis set               ... off
Rotationally invariant grid construction     ... off
Angular grids for H and He will be reduced by one unit

Total number of grid points                  ...   220819
Total number of batches                      ...     3472
Average number of points per batch           ...       63
Average number of grid points per atom       ...     5019

--------------------
COSX GRID GENERATION
--------------------

GRIDX 1
-------
General Integration Accuracy     IntAcc      ... 3.816
Radial Grid Type                 RadialGrid  ... OptM3 with GC (2021)
Angular Grid (max. ang.)         AngularGrid ... 1 (Lebedev-50)
Angular grid pruning method      GridPruning ... 4 (adaptive)
Weight generation scheme         WeightScheme... mBecke (2022)
Basis function cutoff            BFCut       ... 1.0000e-11
Integration weight cutoff        WCut        ... 1.0000e-14
Partially contracted basis set               ... on
Rotationally invariant grid construction     ... off
Angular grids for H and He will be reduced by one unit

Total number of grid points                  ...    34299
Total number of batches                      ...      294
Average number of points per batch           ...      116
Average number of grid points per atom       ...      780
UseSFitting                                  ... on

GRIDX 2
-------
General Integration Accuracy     IntAcc      ... 4.020
Radial Grid Type                 RadialGrid  ... OptM3 with GC (2021)
Angular Grid (max. ang.)         AngularGrid ... 2 (Lebedev-110)
Angular grid pruning method      GridPruning ... 4 (adaptive)
Weight generation scheme         WeightScheme... mBecke (2022)
Basis function cutoff            BFCut       ... 1.0000e-11
Integration weight cutoff        WCut        ... 1.0000e-14
Partially contracted basis set               ... on
Rotationally invariant grid construction     ... off
Angular grids for H and He will be reduced by one unit

Total number of grid points                  ...    64717
Total number of batches                      ...      525
Average number of points per batch           ...      123
Average number of grid points per atom       ...     1471
UseSFitting                                  ... on

GRIDX 3
-------
General Integration Accuracy     IntAcc      ... 4.338
Radial Grid Type                 RadialGrid  ... OptM3 with GC (2021)
Angular Grid (max. ang.)         AngularGrid ... 3 (Lebedev-194)
Angular grid pruning method      GridPruning ... 4 (adaptive)
Weight generation scheme         WeightScheme... mBecke (2022)
Basis function cutoff            BFCut       ... 1.0000e-11
Integration weight cutoff        WCut        ... 1.0000e-14
Partially contracted basis set               ... on
Rotationally invariant grid construction     ... off
Angular grids for H and He will be reduced by one unit

Total number of grid points                  ...   131524
Total number of batches                      ...     1054
Average number of points per batch           ...      124
Average number of grid points per atom       ...     2989
UseSFitting                                  ... on
Initializing property integral containers    ... done (  0.1 sec)

SHARK setup successfully completed in  12.9 seconds

Maximum memory used throughout the entire STARTUP-calculation: 89.9 MB


           ************************************************************
           *        Program running with 16 parallel MPI-processes    *
           *              working on a common directory               *
           ************************************************************
-------------------------------------------------------------------------------
                                 ORCA GUESS
                   Start orbitals & Density for SCF / CASSCF
-------------------------------------------------------------------------------

------------
SCF SETTINGS
------------
Hamiltonian:
 Density Functional     Method          .... DFT(GTOs)
 Exchange Functional    Exchange        .... TPSS
 Correlation Functional Correlation     .... TPSS
 LDA part of GGA corr.  LDAOpt          .... PW91-LDA
 Gradients option       PostSCFGGA      .... off
 Hybrid DFT is turned on
   Fraction HF Exchange ScalHFX         ....  0.100000
   Scaling of DF-GGA-X  ScalDFX         ....  0.900000
   Scaling of DF-GGA-C  ScalDFC         ....  1.000000
   Scaling of DF-LDA-C  ScalLDAC        ....  1.000000
   Perturbative correction              ....  0.000000
   NL short-range parameter             ....  5.200000
 RI-approximation to the Coulomb term is turned on
   Number of AuxJ basis functions       .... 1552
   RIJ-COSX (HFX calculated with COS-X)).... on


General Settings:
 Integral files         IntName         .... CS_PdOAc_003_sp_01
 Hartree-Fock type      HFTyp           .... RHF
 Total Charge           Charge          ....   -2
 Multiplicity           Mult            ....    1
 Number of Electrons    NEL             ....  224
 Basis Dimension        Dim             ....  932
 Nuclear Repulsion      ENuc            ....   3254.9984310948 Eh

Convergence Acceleration:
 AO-DIIS                CNVDIIS         .... on
   Start iteration      DIISMaxIt       ....     0
   Startup error        DIISStart       ....  0.200000
   # of expansion vecs  DIISMaxEq       ....     5
   Bias factor          DIISBfac        ....   1.050
   Max. coefficient     DIISMaxC        ....  10.000
 MO-DIIS                CNVKDIIS        .... off
 Trust-Rad. Augm. Hess. CNVTRAH         .... auto
   Auto Start mean grad. ratio tolernc. ....  1.125000
   Auto Start start iteration           ....    50
   Auto Start num. interpolation iter.  ....    10
   Max. Number of Micro iterations      ....    24
   Max. Number of Macro iterations      .... Maxiter - #DIIS iter
   Number of Davidson start vectors     ....     2
   Converg. threshold    (grad. norm)   ....   1.000e-05
   Grad. Scal. Fac. for Micro threshold ....   0.100
   Minimum threshold for Micro iter.    ....   1.000e-02
   NR start threshold (gradient norm)   ....   1.000e-04
   Initial trust radius                 ....   0.400
   Minimum AH scaling param. (alpha)    ....   1.000
   Maximum AH scaling param. (alpha)    .... 1000.000
   Quad. conv. algorithm                .... NR
   White noise on init. David. guess    .... on
   Maximum white noise                  ....   0.010
   Pseudo random numbers                .... off
   Inactive MOs                         .... canonical
   Orbital update algorithm             .... Taylor
   Preconditioner                       .... Diag
   Full preconditioner red. dimension   ....   250
 SOSCF                  CNVSOSCF        .... on
   Start iteration      SOSCFMaxIt      ....   150
   Startup grad/error   SOSCFStart      ....  0.001000
   Hessian update       SOSCFHessUp     .... L-BFGS
 Level Shifting         CNVShift        .... on
   Level shift para.    LevelShift      ....    0.2500
   Turn off err/grad.   ShiftErr        ....    0.0000
 Zerner damping         CNVZerner       .... off
 Static damping         CNVDamp         .... on
   Fraction old density DampFac         ....    0.8500
   Max. Damping (<1)    DampMax         ....    0.9800
   Min. Damping (>=0)   DampMin         ....    0.0000
   Turn off err/grad.   DampErr         ....    0.0300

SCF Procedure:
 Maximum # iterations   MaxIter         ....  1500
 SCF integral mode      SCFMode         .... Direct
   Integral package                     .... SHARK and LIBINT hybrid scheme
 Reset frequency        DirectResetFreq ....    20
 Integral Threshold     Thresh          ....  2.500e-11 Eh
 Primitive CutOff       TCut            ....  2.500e-12 Eh

Convergence Tolerance:
 Convergence Check Mode ConvCheckMode   .... Total+1el-Energy
 Convergence forced     ConvForced      .... 0
 Energy Change          TolE            ....  1.000e-08 Eh
 1-El. energy change                    ....  1.000e-05 Eh
 Orbital Gradient       TolG            ....  1.000e-05
 Orbital Rotation angle TolX            ....  1.000e-05
 DIIS Error             TolErr          ....  5.000e-07

------------------------------
INITIAL GUESS: MODEL POTENTIAL
------------------------------
Loading Hartree-Fock densities                     ... done
Atomic calculation to generate a density for atom 0 (Pd with ECP)
  Multiplicity assumed   :    3
  Atomic configuration   : 1s2 2s2 2p6 3s2 3p6 4s2 3d10 4p6 5s2 4d8 
  Number of open shells  : 1
  Command: /opt/apps/software/ORCA/6.0.0-gompi-2023b/bin/orca CS_PdOAc_003_sp_01_atom46.inp "" > CS_PdOAc_003_sp_01_atom46.out
Returned from the atomic calculation with res=0
Calculating cut-offs                               ... done
Initializing the effective Hamiltonian             ... done
Setting up the integral package (SHARK)            ... done
Starting the Coulomb interaction                   ... done (   0.8 sec)
Making the grid                                    ... done (   0.6 sec)
Mapping shells                                     ... done
Starting the XC term evaluation                    ... done (   0.3 sec)
  promolecular density results
     # of electrons  =    277.984558225
     EX              =   -441.550653515
     EC              =    -11.126272898
     EX+EC           =   -452.676926413
Transforming the Hamiltonian                       ... done (   1.3 sec)
Diagonalizing the Hamiltonian                      ... done (   0.4 sec)
Back transforming the eigenvectors                 ... done (   0.2 sec)
Now organizing SCF variables                       ... done
                      ------------------
                      INITIAL GUESS DONE (  13.6 sec)
                      ------------------
             **** ENERGY FILE WAS UPDATED (CS_PdOAc_003_sp_01.en.tmp) ****
Finished Guess after  15.0 sec
Maximum memory used throughout the entire GUESS-calculation: 72.2 MB


           ************************************************************
           *        Program running with 16 parallel MPI-processes    *
           *              working on a common directory               *
           ************************************************************

-------------------------------------------------------------------------------------------
                                      ORCA LEAN-SCF
                              memory conserving SCF solver
-------------------------------------------------------------------------------------------

----------------------------------------D-I-I-S--------------------------------------------
Iteration    Energy (Eh)           Delta-E    RMSDP     MaxDP     DIISErr   Damp  Time(sec)
-------------------------------------------------------------------------------------------
               ***  Starting incremental Fock matrix formation  ***
    1    -1626.3491394217689958     0.00e+00  6.71e-04  1.14e-01  4.70e-01  0.850  15.4
Warning: op=0 Small HOMO/LUMO gap (   0.082) - skipping pre-diagonalization
         Will do a full diagonalization
    2    -1626.6664721866536638    -3.17e-01  1.12e-03  2.65e-01  3.96e-01  0.850  12.5
                               ***Turning on AO-DIIS***
    3    -1626.8565616309697361    -1.90e-01  5.36e-04  1.03e-01  3.33e-01  0.850   9.9
    4    -1626.9727259401925039    -1.16e-01  2.62e-04  2.83e-02  2.82e-01  0.850   9.3
    5    -1627.0548112936085090    -8.21e-02  1.53e-04  9.96e-03  2.39e-01  0.850  10.1
    6    -1627.1191831701798947    -6.44e-02  1.14e-04  1.00e-02  2.03e-01  0.850   8.7
    7    -1627.1722011182318965    -5.30e-02  9.63e-05  1.10e-02  1.72e-01  0.850   8.9
    8    -1627.2165050507519481    -4.43e-02  8.28e-05  9.82e-03  1.47e-01  0.850   9.5
    9    -1627.2531527852424915    -3.66e-02  7.10e-05  8.59e-03  1.25e-01  0.850   9.0
   10    -1627.2834736041131691    -3.03e-02  6.02e-05  7.66e-03  1.06e-01  0.850   9.0
   11    -1627.3086926797523120    -2.52e-02  5.10e-05  6.87e-03  8.98e-02  0.850  10.2
   12    -1627.3297672635007984    -2.11e-02  4.33e-05  6.10e-03  7.63e-02  0.850   9.0
   13    -1627.3474190504866783    -1.77e-02  3.69e-05  5.40e-03  6.49e-02  0.850   8.8
   14    -1627.3622263577699414    -1.48e-02  3.15e-05  4.75e-03  5.51e-02  0.850   7.8
   15    -1627.3746750449217870    -1.24e-02  2.67e-05  4.16e-03  4.68e-02  0.850   7.9
   16    -1627.3851648810414190    -1.05e-02  2.27e-05  3.62e-03  3.98e-02  0.850   7.6
   17    -1627.3940190171151698    -8.85e-03  1.93e-05  3.16e-03  3.38e-02  0.850   7.9
   18    -1627.4015005799783467    -7.48e-03  1.65e-05  2.75e-03  2.87e-02  0.850   8.3
   19    -1627.4078277079497639    -6.33e-03  9.38e-05  1.60e-02  2.44e-02  0.000   8.6
                              *** Initializing SOSCF ***
---------------------------------------S-O-S-C-F--------------------------------------
Iteration    Energy (Eh)           Delta-E    RMSDP     MaxDP     MaxGrad    Time(sec)
--------------------------------------------------------------------------------------
   20    -1627.4431786499180816    -3.54e-02  6.21e-06  1.25e-03  5.32e-04    10.5
               *** Restarting incremental Fock matrix formation ***
   21    -1627.4431565495297036     2.21e-05  5.06e-06  6.18e-04  3.66e-05    14.7
   22    -1627.4431553088334113     1.24e-06  2.54e-06  1.75e-04  9.56e-05     8.5
   23    -1627.4431569005910205    -1.59e-06  1.01e-06  7.80e-05  1.77e-05     7.9
   24    -1627.4431567880119474     1.13e-07  7.26e-07  9.50e-05  3.95e-05     7.2
   25    -1627.4431569614489490    -1.73e-07  2.32e-07  3.01e-05  3.49e-06     7.2
   26    -1627.4431569490025140     1.24e-08  1.54e-07  1.73e-05  9.33e-06     6.9
   27    -1627.4431569560319986    -7.03e-09  9.48e-08  1.51e-05  5.05e-07     6.6
                 **** Energy Check signals convergence ****

               *****************************************************
               *                     SUCCESS                       *
               *           SCF CONVERGED AFTER  27 CYCLES          *
               *****************************************************

Recomputing exchange energy using gridx3       ... done (   19.275 sec)
Old exchange energy                            :    -19.149124662 Eh
New exchange energy                            :    -19.149131438 Eh
Exchange energy change after final integration :     -0.000006775 Eh
Total energy after final integration           :  -1627.443163731 Eh
             **** ENERGY FILE WAS UPDATED (CS_PdOAc_003_sp_01.en.tmp) ****

----------------
TOTAL SCF ENERGY
----------------

Total Energy       :      -1627.44316373145739 Eh          -44284.97989 eV

Components:
Nuclear Repulsion  :       3254.99843109484937 Eh           88573.01027 eV
Electronic Energy  :      -4882.44158805088136 Eh         -132857.98998 eV
One Electron Energy:      -8871.98418606801351 Eh         -241418.96321 eV
Two Electron Energy:       3989.54259801713215 Eh          108560.97323 eV

Virial components:
Potential Energy   :      -3089.71293697954115 Eh          -84075.36332 eV
Kinetic Energy     :       1462.26977324808354 Eh           39790.38343 eV
Virial Ratio       :          2.11295685208379

DFT components:
N(Alpha)           :      111.999927669188 electrons
N(Beta)            :      111.999927669188 electrons
N(Total)           :      223.999855338376 electrons
E(X)               :     -173.997906915832 Eh       
E(C)               :       -7.926745448788 Eh       
E(XC)              :     -181.924652364620 Eh       

---------------
SCF CONVERGENCE
---------------

  Last Energy change         ...    7.0295e-09  Tolerance :   1.0000e-08
  Last MAX-Density change    ...    1.5077e-05  Tolerance :   1.0000e-07
  Last RMS-Density change    ...    9.4845e-08  Tolerance :   5.0000e-09
  Last DIIS Error            ...    5.3202e-04  Tolerance :   5.0000e-07
  Last Orbital Gradient      ...    5.0475e-07  Tolerance :   1.0000e-05
  Last Orbital Rotation      ...    1.9282e-06  Tolerance :   1.0000e-05


----------------
ORBITAL ENERGIES
----------------

  NO   OCC          E(Eh)            E(eV) 
   0   2.0000     -18.847898      -512.8774 
   1   2.0000     -18.843407      -512.7552 
   2   2.0000     -18.837682      -512.5994 
   3   2.0000     -18.836530      -512.5680 
   4   2.0000     -18.823069      -512.2017 
   5   2.0000     -18.822318      -512.1813 
   6   2.0000     -18.820958      -512.1443 
   7   2.0000     -18.807993      -511.7915 
   8   2.0000     -18.790138      -511.3056 
   9   2.0000     -18.789179      -511.2796 
  10   2.0000     -18.786429      -511.2047 
  11   2.0000     -18.772035      -510.8130 
  12   2.0000     -10.023088      -272.7421 
  13   2.0000     -10.014033      -272.4957 
  14   2.0000      -9.991933      -271.8943 
  15   2.0000      -9.991595      -271.8851 
  16   2.0000      -9.988048      -271.7886 
  17   2.0000      -9.971894      -271.3490 
  18   2.0000      -9.934492      -270.3313 
  19   2.0000      -9.916999      -269.8553 
  20   2.0000      -9.916034      -269.8290 
  21   2.0000      -9.915144      -269.8048 
  22   2.0000      -9.913473      -269.7593 
  23   2.0000      -9.871194      -268.6088 
  24   2.0000      -3.201561       -87.1189 
  25   2.0000      -3.195860       -86.9638 
  26   2.0000      -1.906403       -51.8759 
  27   2.0000      -1.905443       -51.8497 
  28   2.0000      -1.900662       -51.7196 
  29   2.0000      -1.899628       -51.6915 
  30   2.0000      -1.862758       -50.6882 
  31   2.0000      -1.857414       -50.5428 
  32   2.0000      -0.847692       -23.0669 
  33   2.0000      -0.837622       -22.7928 
  34   2.0000      -0.811603       -22.0848 
  35   2.0000      -0.808989       -22.0137 
  36   2.0000      -0.808026       -21.9875 
  37   2.0000      -0.791532       -21.5387 
  38   2.0000      -0.764115       -20.7926 
  39   2.0000      -0.754116       -20.5205 
  40   2.0000      -0.728096       -19.8125 
  41   2.0000      -0.726303       -19.7637 
  42   2.0000      -0.723958       -19.6999 
  43   2.0000      -0.702094       -19.1049 
  44   2.0000      -0.527425       -14.3520 
  45   2.0000      -0.513493       -13.9728 
  46   2.0000      -0.504194       -13.7198 
  47   2.0000      -0.502347       -13.6696 
  48   2.0000      -0.501449       -13.6451 
  49   2.0000      -0.468946       -12.7607 
  50   2.0000      -0.336969        -9.1694 
  51   2.0000      -0.326085        -8.8732 
  52   2.0000      -0.308513        -8.3951 
  53   2.0000      -0.301646        -8.2082 
  54   2.0000      -0.300411        -8.1746 
  55   2.0000      -0.282007        -7.6738 
  56   2.0000      -0.272024        -7.4022 
  57   2.0000      -0.263452        -7.1689 
  58   2.0000      -0.250440        -6.8148 
  59   2.0000      -0.246883        -6.7180 
  60   2.0000      -0.241832        -6.5806 
  61   2.0000      -0.235299        -6.4028 
  62   2.0000      -0.228329        -6.2131 
  63   2.0000      -0.225907        -6.1472 
  64   2.0000      -0.224832        -6.1180 
  65   2.0000      -0.221990        -6.0407 
  66   2.0000      -0.220732        -6.0064 
  67   2.0000      -0.219169        -5.9639 
  68   2.0000      -0.215525        -5.8647 
  69   2.0000      -0.211103        -5.7444 
  70   2.0000      -0.210238        -5.7209 
  71   2.0000      -0.207649        -5.6504 
  72   2.0000      -0.203248        -5.5307 
  73   2.0000      -0.190793        -5.1918 
  74   2.0000      -0.189990        -5.1699 
  75   2.0000      -0.185606        -5.0506 
  76   2.0000      -0.177784        -4.8378 
  77   2.0000      -0.176368        -4.7992 
  78   2.0000      -0.175331        -4.7710 
  79   2.0000      -0.171419        -4.6645 
  80   2.0000      -0.157826        -4.2947 
  81   2.0000      -0.148541        -4.0420 
  82   2.0000      -0.146400        -3.9837 
  83   2.0000      -0.145651        -3.9634 
  84   2.0000      -0.139654        -3.8002 
  85   2.0000      -0.119158        -3.2424 
  86   2.0000      -0.114907        -3.1268 
  87   2.0000      -0.107945        -2.9373 
  88   2.0000      -0.103715        -2.8222 
  89   2.0000      -0.090599        -2.4653 
  90   2.0000      -0.083447        -2.2707 
  91   2.0000      -0.079291        -2.1576 
  92   2.0000      -0.069862        -1.9010 
  93   2.0000      -0.061265        -1.6671 
  94   2.0000      -0.057754        -1.5716 
  95   2.0000      -0.056014        -1.5242 
  96   2.0000      -0.053051        -1.4436 
  97   2.0000      -0.051030        -1.3886 
  98   2.0000      -0.048475        -1.3191 
  99   2.0000      -0.030728        -0.8361 
 100   2.0000      -0.022691        -0.6175 
 101   2.0000      -0.019628        -0.5341 
 102   2.0000      -0.018428        -0.5015 
 103   2.0000      -0.015952        -0.4341 
 104   2.0000      -0.011340        -0.3086 
 105   2.0000      -0.008314        -0.2262 
 106   2.0000      -0.002720        -0.0740 
 107   2.0000       0.003020         0.0822 
 108   2.0000       0.003530         0.0961 
 109   2.0000       0.005563         0.1514 
 110   2.0000       0.009051         0.2463 
 111   2.0000       0.034584         0.9411 
 112   0.0000       0.136139         3.7045 
 113   0.0000       0.146772         3.9939 
 114   0.0000       0.206471         5.6184 
 115   0.0000       0.211983         5.7683 
 116   0.0000       0.214763         5.8440 
 117   0.0000       0.221319         6.0224 
 118   0.0000       0.227196         6.1823 
 119   0.0000       0.230180         6.2635 
 120   0.0000       0.232724         6.3327 
 121   0.0000       0.235962         6.4209 
 122   0.0000       0.240550         6.5457 
*Only the first 10 virtual orbitals were printed.

                    ********************************
                    * MULLIKEN POPULATION ANALYSIS *
                    ********************************

-----------------------
MULLIKEN ATOMIC CHARGES
-----------------------
   0 Pd:    0.461588
   1 O :   -0.413599
   2 O :   -0.425113
   3 C :    0.510328
   4 C :   -0.359858
   5 H :    0.111448
   6 H :    0.121397
   7 H :    0.103574
   8 O :   -0.476846
   9 C :    0.447200
  10 O :   -0.456622
  11 C :   -0.349922
  12 H :    0.108239
  13 H :    0.094955
  14 H :    0.078506
  15 O :   -0.413170
  16 Pd:    0.470980
  17 O :   -0.451977
  18 C :    0.299039
  19 H :    0.175617
  20 H :    0.116826
  21 C :   -0.324327
  22 H :    0.042316
  23 O :   -0.415703
  24 C :    0.590330
  25 O :   -0.457037
  26 C :   -0.387008
  27 H :    0.087446
  28 H :    0.101245
  29 H :    0.150576
  30 O :   -0.452979
  31 C :    0.415665
  32 O :   -0.470446
  33 C :   -0.354440
  34 H :    0.097075
  35 H :    0.078439
  36 H :    0.103243
  37 O :   -0.472183
  38 C :    0.437516
  39 O :   -0.446403
  40 C :   -0.359834
  41 H :    0.096973
  42 H :    0.107925
  43 H :    0.079018
Sum of atomic charges:   -2.0000000

--------------------------------
MULLIKEN REDUCED ORBITAL CHARGES
--------------------------------
  0 Pds       :     2.585051  s :     2.585051
      pz      :     2.081841  p :     6.312715
      px      :     2.105062
      py      :     2.125811
      dz2     :     1.080379  d :     8.635532
      dxz     :     1.977036
      dyz     :     1.985925
      dx2y2   :     1.618424
      dxy     :     1.973768
      f0      :     0.001857  f :     0.005115
      f+1     :     0.000432
      f-1     :     0.001062
      f+2     :     0.000289
      f-2     :     0.000038
      f+3     :     0.000440
      f-3     :     0.000996

  1 O s       :     3.853521  s :     3.853521
      pz      :     1.459112  p :     4.526690
      px      :     1.537882
      py      :     1.529695
      dz2     :     0.006049  d :     0.031522
      dxz     :     0.007829
      dyz     :     0.006214
      dx2y2   :     0.006051
      dxy     :     0.005380
      f0      :     0.000246  f :     0.001867
      f+1     :     0.000339
      f-1     :     0.000216
      f+2     :     0.000335
      f-2     :     0.000350
      f+3     :     0.000207
      f-3     :     0.000173

  2 O s       :     3.859136  s :     3.859136
      pz      :     1.637003  p :     4.533709
      px      :     1.390501
      py      :     1.506205
      dz2     :     0.005421  d :     0.030380
      dxz     :     0.005156
      dyz     :     0.003993
      dx2y2   :     0.008166
      dxy     :     0.007644
      f0      :     0.000188  f :     0.001888
      f+1     :     0.000282
      f-1     :     0.000133
      f+2     :     0.000167
      f-2     :     0.000309
      f+3     :     0.000463
      f-3     :     0.000345

  3 C s       :     3.048952  s :     3.048952
      pz      :     0.738039  p :     2.131634
      px      :     0.671988
      py      :     0.721606
      dz2     :     0.069698  d :     0.282521
      dxz     :     0.056959
      dyz     :     0.041148
      dx2y2   :     0.072856
      dxy     :     0.041859
      f0      :     0.003294  f :     0.026565
      f+1     :     0.005633
      f-1     :     0.003674
      f+2     :     0.003355
      f-2     :     0.003826
      f+3     :     0.004085
      f-3     :     0.002698

  4 C s       :     3.207847  s :     3.207847
      pz      :     0.982410  p :     3.091219
      px      :     1.053458
      py      :     1.055351
      dz2     :     0.010965  d :     0.056160
      dxz     :     0.013076
      dyz     :     0.016875
      dx2y2   :     0.008061
      dxy     :     0.007183
      f0      :     0.001276  f :     0.004632
      f+1     :     0.000995
      f-1     :     0.000676
      f+2     :     0.000326
      f-2     :     0.000354
      f+3     :     0.000527
      f-3     :     0.000479

  5 H s       :     0.869290  s :     0.869290
      pz      :     0.004389  p :     0.019262
      px      :     0.010188
      py      :     0.004685

  6 H s       :     0.858808  s :     0.858808
      pz      :     0.005537  p :     0.019794
      px      :     0.006742
      py      :     0.007515

  7 H s       :     0.877101  s :     0.877101
      pz      :     0.005838  p :     0.019325
      px      :     0.004480
      py      :     0.009007

  8 O s       :     3.847214  s :     3.847214
      pz      :     1.641111  p :     4.596814
      px      :     1.559679
      py      :     1.396024
      dz2     :     0.002924  d :     0.031030
      dxz     :     0.005255
      dyz     :     0.004300
      dx2y2   :     0.008375
      dxy     :     0.010176
      f0      :     0.000246  f :     0.001787
      f+1     :     0.000173
      f-1     :     0.000178
      f+2     :     0.000063
      f-2     :     0.000284
      f+3     :     0.000405
      f-3     :     0.000440

  9 C s       :     3.026584  s :     3.026584
      pz      :     0.766938  p :     2.228933
      px      :     0.713011
      py      :     0.748985
      dz2     :     0.008844  d :     0.271630
      dxz     :     0.072723
      dyz     :     0.022302
      dx2y2   :     0.085182
      dxy     :     0.082580
      f0      :     0.002558  f :     0.025653
      f+1     :     0.001669
      f-1     :     0.000963
      f+2     :     0.002070
      f-2     :     0.003454
      f+3     :     0.007700
      f-3     :     0.007238

 10 O s       :     3.839058  s :     3.839058
      pz      :     1.467655  p :     4.588020
      px      :     1.358095
      py      :     1.762270
      dz2     :     0.002566  d :     0.027697
      dxz     :     0.009156
      dyz     :     0.000772
      dx2y2   :     0.007961
      dxy     :     0.007242
      f0      :     0.000181  f :     0.001847
      f+1     :     0.000198
      f-1     :     0.000026
      f+2     :     0.000371
      f-2     :     0.000097
      f+3     :     0.000488
      f-3     :     0.000486

 11 C s       :     3.184682  s :     3.184682
      pz      :     1.060845  p :     3.103686
      px      :     1.032081
      py      :     1.010760
      dz2     :     0.007978  d :     0.057040
      dxz     :     0.011322
      dyz     :     0.010302
      dx2y2   :     0.007881
      dxy     :     0.019557
      f0      :     0.000388  f :     0.004514
      f+1     :     0.001079
      f-1     :     0.000352
      f+2     :     0.000454
      f-2     :     0.000254
      f+3     :     0.000767
      f-3     :     0.001220

 12 H s       :     0.872256  s :     0.872256
      pz      :     0.007376  p :     0.019505
      px      :     0.007440
      py      :     0.004689

 13 H s       :     0.885482  s :     0.885482
      pz      :     0.009132  p :     0.019562
      px      :     0.005767
      py      :     0.004663

 14 H s       :     0.902333  s :     0.902333
      pz      :     0.004183  p :     0.019161
      px      :     0.008090
      py      :     0.006888

 15 O s       :     3.839142  s :     3.839142
      pz      :     1.627116  p :     4.541696
      px      :     1.583987
      py      :     1.330593
      dz2     :     0.004145  d :     0.030535
      dxz     :     0.003613
      dyz     :     0.008788
      dx2y2   :     0.007468
      dxy     :     0.006521
      f0      :     0.000147  f :     0.001797
      f+1     :     0.000052
      f-1     :     0.000304
      f+2     :     0.000278
      f-2     :     0.000224
      f+3     :     0.000400
      f-3     :     0.000391

 16 Pds       :     2.559616  s :     2.559616
      pz      :     2.084782  p :     6.313460
      px      :     2.134942
      py      :     2.093737
      dz2     :     1.665178  d :     8.650899
      dxz     :     1.468676
      dyz     :     1.908407
      dx2y2   :     1.916441
      dxy     :     1.692197
      f0      :     0.000714  f :     0.005045
      f+1     :     0.001324
      f-1     :     0.000393
      f+2     :     0.000601
      f-2     :     0.000876
      f+3     :     0.000743
      f-3     :     0.000394

 17 O s       :     3.788437  s :     3.788437
      pz      :     1.618458  p :     4.633333
      px      :     1.440983
      py      :     1.573892
      dz2     :     0.004698  d :     0.028292
      dxz     :     0.004705
      dyz     :     0.005485
      dx2y2   :     0.007101
      dxy     :     0.006302
      f0      :     0.000149  f :     0.001915
      f+1     :     0.000227
      f-1     :     0.000279
      f+2     :     0.000266
      f-2     :     0.000356
      f+3     :     0.000312
      f-3     :     0.000326

 18 C s       :     3.041158  s :     3.041158
      pz      :     0.876830  p :     2.367695
      px      :     0.776739
      py      :     0.714127
      dz2     :     0.052054  d :     0.266730
      dxz     :     0.033534
      dyz     :     0.060418
      dx2y2   :     0.063558
      dxy     :     0.057166
      f0      :     0.001959  f :     0.025377
      f+1     :     0.002696
      f-1     :     0.005708
      f+2     :     0.004469
      f-2     :     0.003218
      f+3     :     0.004191
      f-3     :     0.003136

 19 H s       :     0.802003  s :     0.802003
      pz      :     0.004414  p :     0.022380
      px      :     0.013695
      py      :     0.004270

 20 H s       :     0.861539  s :     0.861539
      pz      :     0.007830  p :     0.021635
      px      :     0.004606
      py      :     0.009199

 21 C s       :     3.133399  s :     3.133399
      pz      :     1.025622  p :     3.132274
      px      :     1.092191
      py      :     1.014461
      dz2     :     0.011806  d :     0.054351
      dxz     :     0.008579
      dyz     :     0.015087
      dx2y2   :     0.013338
      dxy     :     0.005541
      f0      :     0.000551  f :     0.004304
      f+1     :     0.000742
      f-1     :     0.000757
      f+2     :     0.000901
      f-2     :     0.000493
      f+3     :     0.000745
      f-3     :     0.000115

 22 H s       :     0.938385  s :     0.938385
      pz      :     0.004977  p :     0.019299
      px      :     0.005223
      py      :     0.009099

 23 O s       :     3.859398  s :     3.859398
      pz      :     1.560881  p :     4.523293
      px      :     1.303239
      py      :     1.659172
      dz2     :     0.003069  d :     0.031125
      dxz     :     0.008749
      dyz     :     0.001652
      dx2y2   :     0.010115
      dxy     :     0.007541
      f0      :     0.000234  f :     0.001887
      f+1     :     0.000254
      f-1     :     0.000070
      f+2     :     0.000355
      f-2     :     0.000069
      f+3     :     0.000438
      f-3     :     0.000468

 24 C s       :     3.004936  s :     3.004936
      pz      :     0.715664  p :     2.099142
      px      :     0.649830
      py      :     0.733648
      dz2     :     0.015275  d :     0.278662
      dxz     :     0.070266
      dyz     :     0.028032
      dx2y2   :     0.081770
      dxy     :     0.083320
      f0      :     0.002711  f :     0.026930
      f+1     :     0.001977
      f-1     :     0.001591
      f+2     :     0.003122
      f-2     :     0.002855
      f+3     :     0.005307
      f-3     :     0.009367

 25 O s       :     3.869936  s :     3.869936
      pz      :     1.591462  p :     4.554431
      px      :     1.589689
      py      :     1.373280
      dz2     :     0.002954  d :     0.030800
      dxz     :     0.004964
      dyz     :     0.005396
      dx2y2   :     0.007529
      dxy     :     0.009956
      f0      :     0.000237  f :     0.001870
      f+1     :     0.000154
      f-1     :     0.000201
      f+2     :     0.000074
      f-2     :     0.000335
      f+3     :     0.000417
      f-3     :     0.000452

 26 C s       :     3.218576  s :     3.218576
      pz      :     1.090899  p :     3.107380
      px      :     1.029970
      py      :     0.986511
      dz2     :     0.013910  d :     0.056366
      dxz     :     0.006648
      dyz     :     0.008632
      dx2y2   :     0.011058
      dxy     :     0.016119
      f0      :     0.001034  f :     0.004686
      f+1     :     0.000284
      f-1     :     0.000429
      f+2     :     0.000545
      f-2     :     0.000433
      f+3     :     0.000988
      f-3     :     0.000974

 27 H s       :     0.893409  s :     0.893409
      pz      :     0.005657  p :     0.019145
      px      :     0.009199
      py      :     0.004290

 28 H s       :     0.879618  s :     0.879618
      pz      :     0.004443  p :     0.019136
      px      :     0.007075
      py      :     0.007619

 29 H s       :     0.828835  s :     0.828835
      pz      :     0.011578  p :     0.020589
      px      :     0.004410
      py      :     0.004600

 30 O s       :     3.843161  s :     3.843161
      pz      :     1.388955  p :     4.577731
      px      :     1.626635
      py      :     1.562140
      dz2     :     0.006143  d :     0.030270
      dxz     :     0.005179
      dyz     :     0.009721
      dx2y2   :     0.004452
      dxy     :     0.004776
      f0      :     0.000300  f :     0.001817
      f+1     :     0.000165
      f-1     :     0.000457
      f+2     :     0.000337
      f-2     :     0.000308
      f+3     :     0.000131
      f-3     :     0.000119

 31 C s       :     3.036807  s :     3.036807
      pz      :     0.777528  p :     2.252070
      px      :     0.761777
      py      :     0.712766
      dz2     :     0.052959  d :     0.269584
      dxz     :     0.024455
      dyz     :     0.084811
      dx2y2   :     0.035366
      dxy     :     0.071992
      f0      :     0.004959  f :     0.025874
      f+1     :     0.001170
      f-1     :     0.005311
      f+2     :     0.004877
      f-2     :     0.003352
      f+3     :     0.003621
      f-3     :     0.002583

 32 O s       :     3.844109  s :     3.844109
      pz      :     1.793668  p :     4.597120
      px      :     1.474235
      py      :     1.329217
      dz2     :     0.003105  d :     0.027371
      dxz     :     0.000446
      dyz     :     0.007207
      dx2y2   :     0.007430
      dxy     :     0.009181
      f0      :     0.000225  f :     0.001847
      f+1     :     0.000061
      f-1     :     0.000322
      f+2     :     0.000293
      f-2     :     0.000054
      f+3     :     0.000530
      f-3     :     0.000362

 33 C s       :     3.191319  s :     3.191319
      pz      :     1.010092  p :     3.101072
      px      :     1.055705
      py      :     1.035275
      dz2     :     0.012853  d :     0.057486
      dxz     :     0.009591
      dyz     :     0.018989
      dx2y2   :     0.003319
      dxy     :     0.012734
      f0      :     0.000937  f :     0.004564
      f+1     :     0.000613
      f-1     :     0.001157
      f+2     :     0.000590
      f-2     :     0.000260
      f+3     :     0.000131
      f-3     :     0.000876

 34 H s       :     0.883559  s :     0.883559
      pz      :     0.004458  p :     0.019366
      px      :     0.007707
      py      :     0.007201

 35 H s       :     0.902423  s :     0.902423
      pz      :     0.007254  p :     0.019138
      px      :     0.004161
      py      :     0.007724

 36 H s       :     0.877081  s :     0.877081
      pz      :     0.004779  p :     0.019676
      px      :     0.008818
      py      :     0.006078

 37 O s       :     3.854137  s :     3.854137
      pz      :     1.610488  p :     4.585125
      px      :     1.426877
      py      :     1.547760
      dz2     :     0.005986  d :     0.031156
      dxz     :     0.005161
      dyz     :     0.004368
      dx2y2   :     0.007771
      dxy     :     0.007870
      f0      :     0.000187  f :     0.001764
      f+1     :     0.000229
      f-1     :     0.000141
      f+2     :     0.000076
      f-2     :     0.000305
      f+3     :     0.000429
      f-3     :     0.000397

 38 C s       :     3.032665  s :     3.032665
      pz      :     0.766574  p :     2.229260
      px      :     0.728093
      py      :     0.734592
      dz2     :     0.065201  d :     0.274990
      dxz     :     0.057725
      dyz     :     0.040688
      dx2y2   :     0.068130
      dxy     :     0.043246
      f0      :     0.004536  f :     0.025569
      f+1     :     0.002546
      f-1     :     0.004236
      f+2     :     0.002642
      f-2     :     0.004972
      f+3     :     0.003897
      f-3     :     0.002740

 39 O s       :     3.835959  s :     3.835959
      pz      :     1.525985  p :     4.580794
      px      :     1.614706
      py      :     1.440103
      dz2     :     0.006147  d :     0.027797
      dxz     :     0.005350
      dyz     :     0.006992
      dx2y2   :     0.005144
      dxy     :     0.004164
      f0      :     0.000223  f :     0.001852
      f+1     :     0.000200
      f-1     :     0.000357
      f+2     :     0.000403
      f-2     :     0.000355
      f+3     :     0.000130
      f-3     :     0.000184

 40 C s       :     3.190092  s :     3.190092
      pz      :     1.031124  p :     3.107839
      px      :     1.038149
      py      :     1.038566
      dz2     :     0.014975  d :     0.057366
      dxz     :     0.015134
      dyz     :     0.008843
      dx2y2   :     0.005053
      dxy     :     0.013360
      f0      :     0.000690  f :     0.004537
      f+1     :     0.001165
      f-1     :     0.000791
      f+2     :     0.000570
      f-2     :     0.000311
      f+3     :     0.000714
      f-3     :     0.000297

 41 H s       :     0.883503  s :     0.883503
      pz      :     0.004769  p :     0.019524
      px      :     0.005257
      py      :     0.009497

 42 H s       :     0.872620  s :     0.872620
      pz      :     0.007870  p :     0.019456
      px      :     0.007316
      py      :     0.004270

 43 H s       :     0.901806  s :     0.901806
      pz      :     0.004346  p :     0.019176
      px      :     0.007546
      py      :     0.007284



                     *******************************
                     * LOEWDIN POPULATION ANALYSIS *
                     *******************************

----------------------
LOEWDIN ATOMIC CHARGES
----------------------
   0 Pd:    0.134631
   1 O :    0.128080
   2 O :    0.128256
   3 C :   -0.561382
   4 C :   -0.268534
   5 H :    0.118739
   6 H :    0.132089
   7 H :    0.120971
   8 O :    0.067231
   9 C :   -0.619047
  10 O :    0.023163
  11 C :   -0.291666
  12 H :    0.121812
  13 H :    0.120074
  14 H :    0.106989
  15 O :    0.060037
  16 Pd:    0.116784
  17 O :   -0.006803
  18 C :   -0.606434
  19 H :    0.148153
  20 H :    0.136948
  21 C :   -0.292923
  22 H :    0.105336
  23 O :    0.136784
  24 C :   -0.559443
  25 O :    0.113438
  26 C :   -0.271798
  27 H :    0.116322
  28 H :    0.116502
  29 H :    0.140992
  30 O :    0.072099
  31 C :   -0.608380
  32 O :    0.032393
  33 C :   -0.291797
  34 H :    0.115056
  35 H :    0.107112
  36 H :    0.122496
  37 O :    0.066282
  38 C :   -0.616265
  39 O :    0.030650
  40 C :   -0.292600
  41 H :    0.119146
  42 H :    0.120947
  43 H :    0.107560

-------------------------------
LOEWDIN REDUCED ORBITAL CHARGES
-------------------------------
  0 Pds       :     2.309062  s :     2.309062
      pz      :     2.231923  p :     6.612630
      px      :     2.134424
      py      :     2.246283
      dz2     :     1.239585  d :     8.937265
      dxz     :     1.993457
      dyz     :     2.009025
      dx2y2   :     1.697451
      dxy     :     1.997748
      f0      :     0.002391  f :     0.006413
      f+1     :     0.000499
      f-1     :     0.001315
      f+2     :     0.000326
      f-2     :     0.000047
      f+3     :     0.000546
      f-3     :     0.001289

  1 O s       :     3.339560  s :     3.339560
      pz      :     1.454017  p :     4.446748
      px      :     1.514329
      py      :     1.478401
      dz2     :     0.019406  d :     0.079810
      dxz     :     0.021398
      dyz     :     0.016366
      dx2y2   :     0.009478
      dxy     :     0.013162
      f0      :     0.000683  f :     0.005803
      f+1     :     0.001227
      f-1     :     0.000812
      f+2     :     0.000693
      f-2     :     0.001250
      f+3     :     0.000521
      f-3     :     0.000616

  2 O s       :     3.337067  s :     3.337067
      pz      :     1.535231  p :     4.450699
      px      :     1.449645
      py      :     1.465823
      dz2     :     0.014175  d :     0.078161
      dxz     :     0.017806
      dyz     :     0.010251
      dx2y2   :     0.014979
      dxy     :     0.020950
      f0      :     0.000745  f :     0.005818
      f+1     :     0.000819
      f-1     :     0.000512
      f+2     :     0.000353
      f-2     :     0.001107
      f+3     :     0.001008
      f-3     :     0.001274

  3 C s       :     2.738305  s :     2.738305
      pz      :     0.977552  p :     2.664326
      px      :     0.879621
      py      :     0.807153
      dz2     :     0.230770  d :     0.996645
      dxz     :     0.222341
      dyz     :     0.148779
      dx2y2   :     0.210431
      dxy     :     0.184325
      f0      :     0.020383  f :     0.162106
[...]
      py      :     1.062318
      dz2     :     0.063288  d :     0.238342
      dxz     :     0.032046
      dyz     :     0.074868
      dx2y2   :     0.015451
      dxy     :     0.052689
      f0      :     0.004473  f :     0.023723
      f+1     :     0.004986
      f-1     :     0.004358
      f+2     :     0.004386
      f-2     :     0.001466
      f+3     :     0.000716
      f-3     :     0.003340

 34 H s       :     0.825892  s :     0.825892
      pz      :     0.012368  p :     0.059052
      px      :     0.024564
      py      :     0.022120

 35 H s       :     0.834775  s :     0.834775
      pz      :     0.020878  p :     0.058113
      px      :     0.012630
      py      :     0.024605

 36 H s       :     0.818264  s :     0.818264
      pz      :     0.013172  p :     0.059240
      px      :     0.028035
      py      :     0.018034

 37 O s       :     3.357950  s :     3.357950
      pz      :     1.519682  p :     4.491588
      px      :     1.451342
      py      :     1.520564
      dz2     :     0.014055  d :     0.078755
      dxz     :     0.016242
      dyz     :     0.010808
      dx2y2   :     0.015332
      dxy     :     0.022318
      f0      :     0.000794  f :     0.005424
      f+1     :     0.000604
      f-1     :     0.000522
      f+2     :     0.000163
      f-2     :     0.001053
      f+3     :     0.001050
      f-3     :     0.001238

 38 C s       :     2.753528  s :     2.753528
      pz      :     0.962429  p :     2.695433
      px      :     0.866811
      py      :     0.866194
      dz2     :     0.232185  d :     1.008526
      dxz     :     0.194504
      dyz     :     0.174543
      dx2y2   :     0.208985
      dxy     :     0.198308
      f0      :     0.027176  f :     0.158778
      f+1     :     0.016224
      f-1     :     0.027296
      f+2     :     0.019534
      f-2     :     0.028601
      f+3     :     0.023420
      f-3     :     0.016527

 39 O s       :     3.405557  s :     3.405557
      pz      :     1.529962  p :     4.492874
      px      :     1.514890
      py      :     1.448022
      dz2     :     0.013991  d :     0.064973
      dxz     :     0.010503
      dyz     :     0.020240
      dx2y2   :     0.009111
      dxy     :     0.011129
      f0      :     0.000728  f :     0.005945
      f+1     :     0.000484
      f-1     :     0.001380
      f+2     :     0.001029
      f-2     :     0.001320
      f+3     :     0.000545
      f-3     :     0.000460

 40 C s       :     2.852880  s :     2.852880
      pz      :     1.058188  p :     3.178104
      px      :     1.057965
      py      :     1.061951
      dz2     :     0.064811  d :     0.237828
      dxz     :     0.067031
      dyz     :     0.030273
      dx2y2   :     0.021057
      dxy     :     0.054656
      f0      :     0.003689  f :     0.023788
      f+1     :     0.004589
      f-1     :     0.005450
      f+2     :     0.004382
      f-2     :     0.001795
      f+3     :     0.002653
      f-3     :     0.001230

 41 H s       :     0.821727  s :     0.821727
      pz      :     0.013330  p :     0.059127
      px      :     0.015373
      py      :     0.030424

 42 H s       :     0.819660  s :     0.819660
      pz      :     0.023118  p :     0.059393
      px      :     0.023623
      py      :     0.012652

 43 H s       :     0.834371  s :     0.834371
      pz      :     0.012033  p :     0.058069
      px      :     0.023083
      py      :     0.022953



                      *****************************
                      * MAYER POPULATION ANALYSIS *
                      *****************************

  NA   - Mulliken gross atomic population
  ZA   - Total nuclear charge
  QA   - Mulliken gross atomic charge
  VA   - Mayer's total valence
  BVA  - Mayer's bonded valence
  FA   - Mayer's free valence

  ATOM       NA         ZA         QA         VA         BVA        FA
  0 Pd    17.5384    18.0000     0.4616     2.4354     2.4354     0.0000
  1 O      8.4136     8.0000    -0.4136     2.0679     2.0679     0.0000
  2 O      8.4251     8.0000    -0.4251     2.0399     2.0399    -0.0000
  3 C      5.4897     6.0000     0.5103     3.9973     3.9973     0.0000
  4 C      6.3599     6.0000    -0.3599     3.9071     3.9071     0.0000
  5 H      0.8886     1.0000     0.1114     0.9778     0.9778     0.0000
  6 H      0.8786     1.0000     0.1214     0.9738     0.9738    -0.0000
  7 H      0.8964     1.0000     0.1036     0.9792     0.9792    -0.0000
  8 O      8.4768     8.0000    -0.4768     1.9473     1.9473    -0.0000
  9 C      5.5528     6.0000     0.4472     4.1768     4.1768     0.0000
 10 O      8.4566     8.0000    -0.4566     2.0314     2.0314     0.0000
 11 C      6.3499     6.0000    -0.3499     3.8460     3.8460     0.0000
 12 H      0.8918     1.0000     0.1082     0.9798     0.9798     0.0000
 13 H      0.9050     1.0000     0.0950     0.9813     0.9813     0.0000
 14 H      0.9215     1.0000     0.0785     0.9920     0.9920    -0.0000
 15 O      8.4132     8.0000    -0.4132     1.9627     1.9627    -0.0000
 16 Pd    17.5290    18.0000     0.4710     2.4473     2.4473    -0.0000
 17 O      8.4520     8.0000    -0.4520     2.0485     2.0485     0.0000
 18 C      5.7010     6.0000     0.2990     4.4427     4.4427     0.0000
 19 H      0.8244     1.0000     0.1756     0.9857     0.9857     0.0000
 20 H      0.8832     1.0000     0.1168     1.0165     1.0165     0.0000
 21 C      6.3243     6.0000    -0.3243     3.6927     3.6927     0.0000
 22 H      0.9577     1.0000     0.0423     0.9955     0.9955     0.0000
 23 O      8.4157     8.0000    -0.4157     2.0781     2.0781    -0.0000
 24 C      5.4097     6.0000     0.5903     3.9366     3.9366     0.0000
 25 O      8.4570     8.0000    -0.4570     2.0337     2.0337    -0.0000
 26 C      6.3870     6.0000    -0.3870     3.8764     3.8764     0.0000
 27 H      0.9126     1.0000     0.0874     0.9786     0.9786    -0.0000
 28 H      0.8988     1.0000     0.1012     0.9784     0.9784     0.0000
 29 H      0.8494     1.0000     0.1506     0.9919     0.9919     0.0000
 30 O      8.4530     8.0000    -0.4530     1.9591     1.9591    -0.0000
 31 C      5.5843     6.0000     0.4157     4.2137     4.2137    -0.0000
 32 O      8.4704     8.0000    -0.4704     2.0081     2.0081     0.0000
 33 C      6.3544     6.0000    -0.3544     3.8611     3.8611    -0.0000
 34 H      0.9029     1.0000     0.0971     0.9785     0.9785    -0.0000
 35 H      0.9216     1.0000     0.0784     0.9915     0.9915    -0.0000
 36 H      0.8968     1.0000     0.1032     0.9784     0.9784    -0.0000
 37 O      8.4722     8.0000    -0.4722     1.9580     1.9580    -0.0000
 38 C      5.5625     6.0000     0.4375     4.1943     4.1943     0.0000
 39 O      8.4464     8.0000    -0.4464     2.0429     2.0429    -0.0000
 40 C      6.3598     6.0000    -0.3598     3.8558     3.8558    -0.0000
 41 H      0.9030     1.0000     0.0970     0.9768     0.9768    -0.0000
 42 H      0.8921     1.0000     0.1079     0.9788     0.9788    -0.0000
 43 H      0.9210     1.0000     0.0790     0.9934     0.9934    -0.0000

  Mayer bond orders larger than 0.100000
B(  0-Pd,  1-O ) :   0.4579 B(  0-Pd,  8-O ) :   0.4955 B(  0-Pd, 16-Pd) :   0.1625 
B(  0-Pd, 25-O ) :   0.4737 B(  0-Pd, 30-O ) :   0.5209 B(  1-O ,  3-C ) :   1.4827 
B(  2-O ,  3-C ) :   1.4799 B(  2-O , 16-Pd) :   0.4187 B(  3-C ,  4-C ) :   0.9992 
B(  4-C ,  5-H ) :   0.9704 B(  4-C ,  6-H ) :   0.9589 B(  4-C ,  7-H ) :   0.9635 
B(  8-O ,  9-C ) :   1.3478 B(  9-C , 10-O ) :   1.8615 B(  9-C , 11-C ) :   0.9845 
B( 11-C , 12-H ) :   0.9563 B( 11-C , 13-H ) :   0.9558 B( 11-C , 14-H ) :   0.9727 
B( 15-O , 16-Pd) :   0.5653 B( 15-O , 18-C ) :   1.3636 B( 16-Pd, 23-O ) :   0.4370 
B( 16-Pd, 37-O ) :   0.4871 B( 17-O , 18-C ) :   1.9711 B( 18-C , 21-C ) :   1.0017 
B( 19-H , 21-C ) :   0.9284 B( 20-H , 21-C ) :   0.9331 B( 21-C , 22-H ) :   0.9453 
B( 23-O , 24-C ) :   1.4990 B( 24-C , 25-O ) :   1.4134 B( 24-C , 26-C ) :   0.9856 
B( 26-C , 27-H ) :   0.9635 B( 26-C , 28-H ) :   0.9685 B( 26-C , 29-H ) :   0.9505 
B( 30-O , 31-C ) :   1.3685 B( 31-C , 32-O ) :   1.8404 B( 31-C , 33-C ) :   0.9833 
B( 33-C , 34-H ) :   0.9614 B( 33-C , 35-H ) :   0.9716 B( 33-C , 36-H ) :   0.9570 
B( 37-O , 38-C ) :   1.3427 B( 38-C , 39-O ) :   1.8734 B( 38-C , 40-C ) :   0.9839 
B( 40-C , 41-H ) :   0.9566 B( 40-C , 42-H ) :   0.9570 B( 40-C , 43-H ) :   0.9745 


-------
TIMINGS
-------

Total SCF time: 0 days 0 hours 4 min 32 sec 

Total time                  ....     272.163 sec
Sum of individual times     ....     270.461 sec  ( 99.4%)

SCF preparation             ....       2.273 sec  (  0.8%)
Fock matrix formation       ....     210.724 sec  ( 77.4%)
  Startup                   ....       4.833 sec  (  2.3% of F)
  Split-RI-J                ....      33.101 sec  ( 15.7% of F)
  Chain of spheres X        ....     119.704 sec  ( 56.8% of F)
  XC integration            ....      41.706 sec  ( 19.8% of F)
    XC Preparation          ....       0.000 sec  (  0.0% of XC)
    Basis function eval.    ....       5.227 sec  ( 12.5% of XC)
    Density eval.           ....      12.933 sec  ( 31.0% of XC)
    XC-Functional eval.     ....       1.058 sec  (  2.5% of XC)
    XC-Potential eval.      ....      10.021 sec  ( 24.0% of XC)
Diagonalization             ....       0.000 sec  (  0.0%)
Density matrix formation    ....       9.974 sec  (  3.7%)
Total Energy calculation    ....       4.849 sec  (  1.8%)
Population analysis         ....       1.024 sec  (  0.4%)
Orbital Transformation      ....       2.294 sec  (  0.8%)
Orbital Orthonormalization  ....       0.000 sec  (  0.0%)
DIIS solution               ....      33.357 sec  ( 12.3%)
SOSCF solution              ....       5.965 sec  (  2.2%)
Finished LeanSCF after 272.5 sec

Maximum memory used throughout the entire LEANSCF-calculation: 139.2 MB


-------------------------------------------------------------------------------
                          DFT DISPERSION CORRECTION                            
                                                                               
                              DFTD3 V3.1  Rev 1                                
                          USING Becke-Johnson damping                          
-------------------------------------------------------------------------------
The TPSSH functional is recognized
Active option DFTDOPT                   ...         4   

molecular C6(AA) [au] = 25274.620752 


            DFT-D V3
 parameters
 s6 scaling factor         :     1.0000 
 a1 scaling factor         :     0.4529 
 s8 scaling factor         :     2.2382 
 a2 scaling factor         :     4.6550 
 ad hoc parameters k1-k3   :    16.0000     1.3333    -4.0000 

 Edisp/kcal,au: -41.736371218190  -0.066511134080 
 E6   /kcal   : -18.908083853 
 E8   /kcal   : -22.828287366 
 % E8         :  54.696387585 

-------------------------   ----------------
Dispersion correction           -0.066511134
-------------------------   ----------------


-------------------------   --------------------
FINAL SINGLE POINT ENERGY     -1627.509674865538
-------------------------   --------------------



           ************************************************************
           *        Program running with 16 parallel MPI-processes    *
           *              working on a common directory               *
           ************************************************************

------------------------------------------------------------------------------
                              ORCA PROPERTY CALCULATIONS
------------------------------------------------------------------------------

GBWName                                 ... CS_PdOAc_003_sp_01.gbw
Number of atoms                         ...     44
Number of basis functions               ...    932
Max core memory                         ...   3500 MB

Electric properties:
Dipole moment                           ... YES
Quadrupole moment                       ...  NO
Static polarizability (Dipole/Dipole)   ...  NO
Static polarizability (Dipole/Quad.)    ...  NO
Static polarizability (Quad./Quad.)     ...  NO
Static polarizability (Velocity)        ...  NO

Atomic electric properties:
Dipole moment                           ...  NO
Quadrupole moment                       ...  NO
Static polarizability                   ...  NO

Choice of electric origin               ... Center of mass
Position of electric origin             ...     1.822724     2.580944     0.101745

General magnetic properties:
Magnetizability                         ...  NO

EPR properties:
g-Tensor (aka g-matrix)                 ...  NO
Zero-Field splitting spin-orbit         ...  NO
Zero-field splitting spin-spin          ...  NO
Hyperfine couplings                     ...  NO (   0 nuclei)
Quadrupole couplings                    ...  NO (   0 nuclei)
Contact density                         ...  NO (   0 nuclei)

NMR properties:
Chemical shifts                         ...  NO (   0 nuclei)
Spin-rotation constants                 ...  NO (   0 nuclei)
Spin-spin couplings                     ...  NO (   0 nuclei,    0 pairs)

Choice of magnetic origin               ... GIAO
Position of magnetic origin             ...     0.000000     0.000000     0.000000

Properties with geometric perturbations:
SCF Hessian                             ...  NO
IR spectrum                             ...  NO
VCD spectrum                            ...  NO
X-ray spectroscopy properties:
SCF XES/XAS/RIXS spectra                ...  NO


-------------
DIPOLE MOMENT
-------------

Method             : SCF
Type of density    : Electron Density
Multiplicity       :   1
Irrep              :   0
Energy             : -1627.4431637314573891 Eh
Relativity type    : 
Basis              : AO
                                X                 Y                 Z
Electronic contribution:    -19.059287962     -29.243337421     -49.016396315
Nuclear contribution   :     17.227298936      28.277831810      49.066965981
                        -----------------------------------------
Total Dipole Moment    :     -1.831989026      -0.965505611       0.050569665
                        -----------------------------------------
Magnitude (a.u.)       :      2.071458947
Magnitude (Debye)      :      5.265230208



--------------------
Rotational spectrum 
--------------------
 
Rotational constants in cm-1:             0.005988             0.004640             0.004055 
Rotational constants in MHz :           179.528347           139.108515           121.563921 

Dipole components along the rotational axes: 
x,y,z [a.u.] :    -1.147756    -1.250200    -1.187687 
x,y,z [Debye]:    -2.917363    -3.177756    -3.018860 

 

Dipole moment calculation done in   0.2 sec 

Maximum memory used throughout the entire PROP-calculation: 77.5 MB

--------------------------------
SUGGESTED CITATIONS FOR THIS RUN
--------------------------------

Below you find a list of papers that are relevant to this ORCA run
We neither can nor want to force you to cite these papers, but we appreciate if you do
You receive ORCA, which is the product of decades of hard work by many enthusiastic individuals, for free
The only thing we kindly ask in return is that you cite our papers,
We deeply appreciate it, if you show your appreciation for ORCA by not just citing the generic ORCA reference.

Please note that relegating all ORCA citations to the supporting information does *not* help us.
SI sections are not indexed - citations you put there will not count into any citation statistics
But we need these citations in order to attract the funding resources that allow us to do what we are doing

Therefore, if you are a happy ORCA user, please consider citing a few of the papers listed below in the main body of your paper

In addition to the list printed below, the program has created the file CS_PdOAc_003_sp_01.bibtex that contains the list in bibtex format
You can import this file easily into all common literature databanks and citation aid programs


List of essential papers. We consider these as the minimum necessary citations

  1. Neese,F.
     Software update: the ORCA program system, version 5.0
     WIRES Comput. Molec. Sci., 2022 12(1)e1606
     doi.org/10.1002/wcms.1606

List of papers to cite with high priority. The work reported in these papers was absolutely
necessary for this run to complete.
Our perspective: the developers of density functionals and basis sets usually get cited in chemistry papers
Good! But without the algorithms to do something with them, the functionals or basis sets would not do anything.
Hence, in our opinion, the algorithm design and method developments papers are equally worthy of getting cited

  1. Neese,F.
     An improvement of the resolution of the identity approximation for the formation of the Coulomb matrix
     J. Comp. Chem., 2003 24(14)1740-1747
     doi.org/10.1002/jcc.10318
  2. Neese,F.; Wennmohs,F.; Hansen,A.; Becker,U.
     Efficient, approximate and parallel Hartree-Fock and hybrid DFT calculations. A 'chain-of-spheres' algorithm for the Hartree-Fock exchange
     Chem. Phys., 2009 356(1-3)98-109
     doi.org/10.1016/j.chemphys.2008.10.036
  3. Helmich-Paris,B.; de Souza,B.; Neese,F.; Izsák,R.
     An improved chain of spheres for exchange algorithm
     J. Chem. Phys., 2021 155 104109
     doi.org/doi: 10.1063/5.0058766.
  4. Neese,F.
     The SHARK Integral Generation and Digestion System
     J. Comp. Chem., 2022  1-16
     doi.org/10.1002/jcc.26942
  5. Grimme,S.; Antony,J.; Ehrlich,S.; Krieg,H.
     A consistent and accurate ab initio parametrization of density functional dispersion correction (DFT-D) for the 94 elements H-Pu
     J. Chem. Phys., 2010 132 154104-XXXX
     doi.org/10.1063/1.3382344
  6. Grimme,S.; Ehrlich,S.; Goerigk,L.
     Effect of the damping function in dispersion corrected density functional theory
     J. Comput. Chem., 2011 32(7)1456-1465
     doi.org/10.1002/jcc.21759

List of suggested additional citations. These are papers that are important in the 'surrounding' of 
of this run, or papers that preceded the highly important papers. If you like your results we are grateful for a citation.

  1. Izsak,R.; Neese,F.
     An overlap fitted chain of spheres exchange method
     J. Chem. Phys., 2011 135 144105
     doi.org/10.1063/1.3646921
  2. Izsak,R.; Hansen,A.; Neese,F.
     The resolution of identity and chain of spheres approximations for the LPNO-CCSD singles Fock term
     Molec. Phys., 2012 110 2413-2417
     doi.org/10.1080/00268976.2012.687466
  3. Neese,F.
     The ORCA program system
     WIRES Comput. Molec. Sci., 2012 2(1)73-78
     doi.org/10.1002/wcms.81
  4. Izsak,R.; Neese,F.; Klopper,W.
     Robust fitting techniques in the chain of spheres approximation to the Fock exchange: The role of the complementary space
     J. Chem. Phys., 2013 139 
     doi.org/10.1063/1.4819264
  5. Neese,F.
     Software update: the ORCA program system, version 4.0
     WIRES Comput. Molec. Sci., 2018 8(1)1-6
     doi.org/10.1002/wcms.1327
  6. Neese,F.; Wennmohs,F.; Becker,U.; Riplinger,C.
     The ORCA quantum chemistry program package
     J. Chem. Phys., 2020 152 Art. No. L224108
     doi.org/10.1063/5.0004608

List of optional additional citations

  1. Neese,F.
     Approximate second-order SCF convergence for spin unrestricted wavefunctions
     Chem. Phys. Lett., 2000 325(1-3)93-98
     doi.org/10.1016/s0009-2614(00)00662-x

Timings for individual modules:

Sum of individual times          ...      307.613 sec (=   5.127 min)
Startup calculation              ...       14.901 sec (=   0.248 min)   4.8 %
SCF iterations                   ...      290.288 sec (=   4.838 min)  94.4 %
Property calculations            ...        2.424 sec (=   0.040 min)   0.8 %
                             ****ORCA TERMINATED NORMALLY****
TOTAL RUN TIME: 0 days 0 hours 5 minutes 10 seconds 976 msec
