
                                 *****************
                                 * O   R   C   A *
                                 *****************

                                            #,                                       
                                            ###                                      
                                            ####                                     
                                            #####                                    
                                            ######                                   
                                           ########,                                 
                                     ,,################,,,,,                         
                               ,,#################################,,                 
                          ,,##########################################,,             
                       ,#########################################, ''#####,          
                    ,#############################################,,   '####,        
                  ,##################################################,,,,####,       
                ,###########''''           ''''###############################       
              ,#####''   ,,,,##########,,,,          '''####'''          '####       
            ,##' ,,,,###########################,,,                        '##       
           ' ,,###''''                  '''############,,,                           
         ,,##''                                '''############,,,,        ,,,,,,###''
      ,#''                                            '''#######################'''  
     '                                                          ''''####''''         
             ,#######,   #######,   ,#######,      ##                                
            ,#'     '#,  ##    ##  ,#'     '#,    #''#        ,####,   ,####,        
            ##       ##  ##   ,#'  ##            #'  '#       #'       #'  '#        
            ##       ##  #######   ##           ,######,      #####,   #    #        
            '#,     ,#'  ##    ##  '#,     ,#' ,#      #,     #,   #   #,  ,#        
             '#######'   ##     ##  '#######'  #'      '#     '####' # '####'        



                #########################################################
                #                        -***-                          #
                #          Department of theory and spectroscopy        #
                #                                                       #
                #                      Frank Neese                      #
                #                                                       #
                #     Directorship, Architecture, Infrastructure        #
                #                    SHARK, DRIVERS                     #
                #        Core code/Algorithms in most modules           #
                #                                                       #
                #        Max Planck Institute fuer Kohlenforschung      #
                #                Kaiser Wilhelm Platz 1                 #
                #                 D-45470 Muelheim/Ruhr                 #
                #                      Germany                          #
                #                                                       #
                #                  All rights reserved                  #
                #                        -***-                          #
                #########################################################


                         Program Version 6.0.0  -   RELEASE  -


 With contributions from (in alphabetic order):
   Daniel Aravena         : Magnetic Suceptibility
   Michael Atanasov       : Ab Initio Ligand Field Theory (pilot matlab implementation)
   Alexander A. Auer      : GIAO ZORA, VPT2 properties, NMR spectrum
   Ute Becker             : All parallelization in ORCA, NUMFREQ, NUMCALC
   Giovanni Bistoni       : ED, misc. LED, open-shell LED, HFLD
   Martin Brehm           : Molecular dynamics
   Dmytro Bykov           : pre 5.0 version of the SCF Hessian
   Marcos Casanova-Páez   : Triplet and SCS-CIS(D). UHF-(DLPNO)-IP/EA/STEOM-CCSD. UHF-CVS-IP/STEOM-CCSD
   Vijay G. Chilkuri      : MRCI spin determinant printing, contributions to CSF-ICE
   Pauline Colinet        : FMM embedding
   Dipayan Datta          : RHF DLPNO-CCSD density
   Achintya Kumar Dutta   : EOM-CC, STEOM-CC
   Nicolas Foglia         : Exact transition moments, OPA infrastructure, MCD improvements
   Dmitry Ganyushin       : Spin-Orbit,Spin-Spin,Magnetic field MRCI
   Miquel Garcia          : C-PCM and meta-GGA Hessian, CCSD/C-PCM, Gaussian charge scheme
   Tiago L. C. Gouveia    : GS-ROHF, GS-ROCIS
   Yang Guo               : DLPNO-NEVPT2, F12-NEVPT2, CIM, IAO-localization
   Andreas Hansen         : Spin unrestricted coupled pair/coupled cluster methods
   Ingolf Harden          : AUTO-CI MPn and infrastructure 
   Benjamin Helmich-Paris : MC-RPA, TRAH-(SCF,CASSCF), AVAS, COSX integrals, SCF dyn. polar.
   Lee Huntington         : MR-EOM, pCC
   Robert Izsak           : Overlap fitted RIJCOSX, COSX-SCS-MP3, EOM
   Riya Kayal             : Wick's Theorem for AUTO-CI, AUTO-CI UHF-CCSDT
   Emily Kempfer          : AUTO-CI, RHF CISDT and CCSDT
   Christian Kollmar      : KDIIS, OOCD, Brueckner-CCSD(T), CCSD density, CASPT2, CASPT2-K, improved NEVPT2
   Axel Koslowski         : Symmetry handling
   Simone Kossmann        : Meta GGA functionals, TD-DFT gradient, OOMP2, (MP2 Hessian; deprecated post 5.0)
   Lucas Lang             : DCDCAS
   Marvin Lechner         : AUTO-CI (C++ implementation), FIC-MRCC
   Spencer Leger          : CASSCF response
   Dagmar Lenk            : GEPOL surface, SMD, ORCA-2-JSON
   Dimitrios Liakos       : Extrapolation schemes; Compound Job, initial MDCI parallelization
   Dimitrios Manganas     : Further ROCIS development; embedding schemes. LFT, Crystal Embedding
   Dimitrios Pantazis     : SARC Basis sets
   Anastasios Papadopoulos: AUTO-CI, single reference methods and gradients
   Taras Petrenko         : pre 6.0 DFT Hessian and TD-DFT gradient, (ASA, deprecated), ECA, 1-Electron XAS/XES, NRVS
   Peter Pinski           : DLPNO-MP2, DLPNO-MP2 Gradient
   Christoph Reimann      : Effective Core Potentials
   Marius Retegan         : Local ZFS, SOC
   Christoph Riplinger    : Optimizer, TS searches, QM/MM, DLPNO-CCSD(T), (RO)-DLPNO pert. Triples
   Michael Roemelt        : Original ROCIS implementation
   Masaaki Saitow         : Open-shell DLPNO-CCSD energy and density
   Barbara Sandhoefer     : DKH picture change effects
   Kantharuban Sivalingam : CASSCF convergence/infrastructure, NEVPT2 and variants, FIC-MRCI
   Bernardo de Souza      : ESD, SOC TD-DFT
   Georgi Stoychev        : AutoAux, RI-MP2 NMR, DLPNO-MP2 response, X2C
   Van Anh Tran           : RI-MP2 g-tensors
   Willem Van den Heuvel  : Paramagnetic NMR
   Zikuan Wang            : NOTCH, Electric field optimization 
   Frank Wennmohs         : Technical directorship and infrastructure
   Hang Xu                : AUTO-CI-Response properties 


 We gratefully acknowledge several colleagues who have allowed us to
 interface, adapt or use parts of their codes:
   Stefan Grimme, W. Hujo, H. Kruse, P. Pracht,  : VdW corrections, initial TS optimization,
                  C. Bannwarth, S. Ehlert,         DFT functionals, gCP, sTDA/sTD-DF
                  L. Wittmann, M. Mueller
   Ed Valeev, F. Pavosevic, A. Kumar             : LibInt (2-el integral package), F12 methods
   Garnet Chan, S. Sharma, J. Yang, R. Olivares  : DMRG
   Ulf Ekstrom                                   : XCFun DFT Library
   Mihaly Kallay                                 : mrcc  (arbitrary order and MRCC methods)
   Frank Weinhold                                : gennbo (NPA and NBO analysis)
   Simon Mueller                                 : openCOSMO-RS
   Christopher J. Cramer and Donald G. Truhlar   : smd solvation model
   Lars Goerigk                                  : TD-DFT with DH, B97 family of functionals
   V. Asgeirsson, H. Jonsson                     : NEB implementation
   FAccTs GmbH                                   : IRC, NEB, NEB-TS, DLPNO-Multilevel, CI-OPT
                                                   MM, QMMM, 2- and 3-layer-ONIOM, Crystal-QMMM,
                                                   LR-CPCM, SF, NACMEs, symmetry and pop. for TD-DFT,
                                                   nearIR, NL-DFT gradient (VV10), updates on ESD,
                                                   ML-optimized integration grids, MBIS, APM,
                                                   GOAT, DOCKER, SOLVATOR, interface openCOSMO-RS
   S Lehtola, MJT Oliveira, MAL Marques          : LibXC Library
   Liviu Ungur et al                             : ANISO software


 Your calculation uses the libint2 library for the computation of 2-el integrals
 For citations please refer to: http://libint.valeyev.net

 Your ORCA version has been built with support for libXC version: 6.2.2
 For citations please refer to: https://libxc.gitlab.io

 This ORCA versions uses:
   CBLAS   interface :  Fast vector & matrix operations
   LAPACKE interface :  Fast linear algebra routines
   SCALAPACK package :  Parallel linear algebra routines
   Shared memory     :  Shared parallel matrices
   BLAS/LAPACK       :  OpenBLAS 0.3.27  USE64BITINT DYNAMIC_ARCH NO_AFFINITY Sandybridge SINGLE_THREADED
        Core in use  :  Sandybridge
   Copyright (c) 2011-2014, The OpenBLAS Project


NOTE: MaxCore=3500 MB was set to SCF,MP2,MDCI,CIPSI,MRCI and CIS
      => If you want to overwrite this, your respective input block should be placed after the MaxCore statement
Your calculation utilizes the atom-pairwise dispersion correction
with the Becke-Johnson damping scheme (D3BJ)


Warning: RI is on but no J-basis has been assigned. Assigning Def2/J (nothing to worry about!)
================================================================================

cite the ECPs for Pd [Def2-ECP] as follows:
Ce-Yb(ecp-28): M. Dolg, H. Stoll, H.Preuss, J. Chem. Phys., 1989, 90, 1730-1734.
Y-Cd(ecp-28), Hf-Hg(ecp-46): D. Andrae,U. Haeussermann, M. Dolg, H. Stoll, H. Preuss, Theor. Chim. Acta, 1990, 77, 123-141.
In-Sb(ecp-28), Tl-Bi(ecp-46): B. Metz, H. Stoll, M. Dolg, J. Chem. Phys., 2000, 113, 2563-2569.
Te-Xe(ecp-28), Po-Rn(ecp-46): K. A. Peterson, D. Figgen, E. Goll, H. Stoll, M. Dolg, J. Chem. Phys., 2003, 119, 11113-11123.
Rb(ecp-28), Cs(ecp-46): T. Leininger, A. Nicklass, W. Kuechle, H. Stoll, M. Dolg, A. Bergner, Chem. Phys. Lett., 1996, 255, 274-280.
Sr(ecp-28), Ba(ecp-46): M. Kaupp, P. V. Schleyer, H. Stoll and H. Preuss, J. Chem. Phys., 1991, 94, 1360-1366.
La(ecp-46): M. Dolg, H. Stoll, A. Savin, H. Preuss, Theor. Chim. Acta, 1989, 75, 173-194.
Lu(ecp-28): X. Cao, M. Dolg, J. Chem. Phys., 2001, 115, 7348-7355.

ECP parameters for Pd [Def2-ECP] have been obtained from:
TURBOMOLE (7.0.2)

----- Orbital basis set information -----
Your calculation utilizes the basis: def2-TZVP
   F. Weigend and R. Ahlrichs, Phys. Chem. Chem. Phys. 7, 3297 (2005).

----- AuxJ basis set information -----
Your calculation utilizes the auxiliary basis: def2/J
   F. Weigend, Phys. Chem. Chem. Phys. 8, 1057 (2006).

================================================================================
                                        WARNINGS
                       Please study these warnings very carefully!
================================================================================

Using LibXC functional ID 497 : Re-regularized SCAN exchange by Furness et al
[ 1]  J. W. Furness, A. D. Kaplan, J. Ning, J. P. Perdew, and J. Sun.,  J. Phys. Chem. Lett. 11, 8208-8215 (2020)
[ 2]  J. W. Furness, A. D. Kaplan, J. Ning, J. P. Perdew, and J. Sun.,  J. Phys. Chem. Lett. 11, 9248-9248 (2020)
Using LibXC functional ID 498 : Re-regularized SCAN correlation by Furness et al
[ 1]  J. W. Furness, A. D. Kaplan, J. Ning, J. P. Perdew, and J. Sun.,  J. Phys. Chem. Lett. 11, 8208-8215 (2020)
[ 2]  J. W. Furness, A. D. Kaplan, J. Ning, J. P. Perdew, and J. Sun.,  J. Phys. Chem. Lett. 11, 9248-9248 (2020)
Using LibXC functional ID 497 : Re-regularized SCAN exchange by Furness et al
[ 1]  J. W. Furness, A. D. Kaplan, J. Ning, J. P. Perdew, and J. Sun.,  J. Phys. Chem. Lett. 11, 8208-8215 (2020)
[ 2]  J. W. Furness, A. D. Kaplan, J. Ning, J. P. Perdew, and J. Sun.,  J. Phys. Chem. Lett. 11, 9248-9248 (2020)
Using LibXC functional ID 498 : Re-regularized SCAN correlation by Furness et al
[ 1]  J. W. Furness, A. D. Kaplan, J. Ning, J. P. Perdew, and J. Sun.,  J. Phys. Chem. Lett. 11, 8208-8215 (2020)
[ 2]  J. W. Furness, A. D. Kaplan, J. Ning, J. P. Perdew, and J. Sun.,  J. Phys. Chem. Lett. 11, 9248-9248 (2020)

================================================================================
                                       INPUT FILE
================================================================================
NAME = CS_PdOAc_001_sp_02.inp
|  1> !r2SCANh def2-TZVP d3 TightSCF SlowConv RIJCOSX defgrid2
|  2> 
|  3> %pal
|  4> nprocs 16
|  5> end
|  6> 
|  7> %scf
|  8> MaxIter 1500
|  9> end
| 10> 
| 11> %maxcore 3500
| 12> 
| 13>  
| 14> 
| 15> * xyz 0 1
| 16>   Pd         -0.70729732359429     -1.69471520698101     -0.00411741820118
| 17>   Pd         -1.11683962042653      1.46234841125249     -0.01199162650670
| 18>   Pd          1.82153224613321      0.23638840943721      0.01149599704147
| 19>   O           0.65717020631612     -2.54430691430186      1.22342692467684
| 20>   O           0.30208044667745     -2.27040351328351     -1.65079825387713
| 21>   O          -1.82659447994299     -1.38351962474004      1.64325741771439
| 22>   O          -2.27157849267903     -1.31796320025989     -1.22974419824762
| 23>   O          -2.10146057413708      0.88012719115423     -1.67106773781384
| 24>   O           0.00410206993513      2.62967709997367     -1.22530713419033
| 25>   O          -2.54701322417182      0.69898345219958      1.19649257183493
| 26>   O          -0.30635482903907      2.27184095767005      1.64687421948762
| 27>   O           1.86249152561263      1.85151702320007      1.22806540163286
| 28>   O           2.09794236418462     -0.87676297014425      1.66881788581427
| 29>   O           2.28691360022264     -1.31562606175175     -1.19938062891759
| 30>   O           1.83064850766278      1.38655863591844     -1.64342664875516
| 31>   C          -2.54947741577062     -0.27692201146875     -1.87616601959935
| 32>   C          -2.55728302600413     -0.37939237868914      1.84138099270396
| 33>   C           1.59116634792032     -2.00967203446952      1.87198392078046
| 34>   C           1.53002353585967     -2.08221996642852     -1.84627640166011
| 35>   C           1.05385476876182      2.35201448781485     -1.85757755945378
| 36>   C           0.92610165556911      2.40001095882297      1.86150099178292
| 37>   C          -3.50190662573245     -0.44465889520679     -3.02919546851225
| 38>   H          -3.89516668402246      0.52750343055755     -3.35788951575189
| 39>   H          -2.95896166644210     -0.92174980515021     -3.86340379777296
| 40>   H          -4.32164188118390     -1.11972030495782     -2.73856445661204
| 41>   C           1.39888310750764      3.26247798673059     -3.00521028946863
| 42>   H           1.21647777381569      4.30916199917301     -2.71670989400076
| 43>   H           2.44261533013324      3.12050655338611     -3.31856742013713
| 44>   H           0.72743740128005      3.02907808519091     -3.84958061083043
| 45>   C           2.16241922653299     -2.83318711430041     -2.98680361093246
| 46>   H           2.31465018512874     -2.13135172379473     -3.82498238147898
| 47>   H           3.15303791190011     -3.20490916968796     -2.68231008942760
| 48>   H           1.51957679259546     -3.66159894229901     -3.31581878271186
| 49>   C           2.13909525985761     -2.80285286274312      3.02759813974084
| 50>   H           2.19324921785900     -3.86832977489665      2.75663534263119
| 51>   H           3.12608947347902     -2.42490950306132      3.32925297511617
| 52>   H           1.43892999026856     -2.70945503981504      3.87594678327563
| 53>   C          -3.53140387701817     -0.46122903773955      2.98559055861895
| 54>   H          -3.69708206400159     -1.50555330804548      3.28538623648237
| 55>   H          -3.11310178068615      0.10061419630771      3.83878425744490
| 56>   H          -4.47985980501089      0.02077819409732      2.70312126528622
| 57>   C           1.32826969647438      3.28245440536012      3.01231179070604
| 58>   H           1.60631546728150      2.63794840594356      3.86419305408477
| 59>   H           2.21660700098280      3.87175359322641      2.73786782321844
| 60>   H           0.49951125991094      3.94017188679948      3.30968039478457
| 61> *
| 62> 
| 63>                          ****END OF INPUT****
================================================================================

                       ****************************
                       * Single Point Calculation *
                       ****************************

---------------------------------
CARTESIAN COORDINATES (ANGSTROEM)
---------------------------------
  Pd    -0.707297   -1.694715   -0.004117
  Pd    -1.116840    1.462348   -0.011992
  Pd     1.821532    0.236388    0.011496
  O      0.657170   -2.544307    1.223427
  O      0.302080   -2.270404   -1.650798
  O     -1.826594   -1.383520    1.643257
  O     -2.271578   -1.317963   -1.229744
  O     -2.101461    0.880127   -1.671068
  O      0.004102    2.629677   -1.225307
  O     -2.547013    0.698983    1.196493
  O     -0.306355    2.271841    1.646874
  O      1.862492    1.851517    1.228065
  O      2.097942   -0.876763    1.668818
  O      2.286914   -1.315626   -1.199381
  O      1.830649    1.386559   -1.643427
  C     -2.549477   -0.276922   -1.876166
  C     -2.557283   -0.379392    1.841381
  C      1.591166   -2.009672    1.871984
  C      1.530024   -2.082220   -1.846276
  C      1.053855    2.352014   -1.857578
  C      0.926102    2.400011    1.861501
  C     -3.501907   -0.444659   -3.029195
  H     -3.895167    0.527503   -3.357890
  H     -2.958962   -0.921750   -3.863404
  H     -4.321642   -1.119720   -2.738564
  C      1.398883    3.262478   -3.005210
  H      1.216478    4.309162   -2.716710
  H      2.442615    3.120507   -3.318567
  H      0.727437    3.029078   -3.849581
  C      2.162419   -2.833187   -2.986804
  H      2.314650   -2.131352   -3.824982
  H      3.153038   -3.204909   -2.682310
  H      1.519577   -3.661599   -3.315819
  C      2.139095   -2.802853    3.027598
  H      2.193249   -3.868330    2.756635
  H      3.126089   -2.424910    3.329253
  H      1.438930   -2.709455    3.875947
  C     -3.531404   -0.461229    2.985591
  H     -3.697082   -1.505553    3.285386
  H     -3.113102    0.100614    3.838784
  H     -4.479860    0.020778    2.703121
  C      1.328270    3.282454    3.012312
  H      1.606315    2.637948    3.864193
  H      2.216607    3.871754    2.737868
  H      0.499511    3.940172    3.309680

----------------------------
CARTESIAN COORDINATES (A.U.)
----------------------------
  NO LB      ZA    FRAG     MASS         X           Y           Z
   0 Pd   18.0000*   0   106.400   -1.336598   -3.202548   -0.007781
   1 Pd   18.0000*   0   106.400   -2.110521    2.763438   -0.022661
   2 Pd   18.0000*   0   106.400    3.442197    0.446709    0.021724
   3 O     8.0000    0    15.999    1.241872   -4.808043    2.311942
   4 O     8.0000    0    15.999    0.570849   -4.290441   -3.119557
   5 O     8.0000    0    15.999   -3.451763   -2.614473    3.105306
   6 O     8.0000    0    15.999   -4.292661   -2.490590   -2.323880
   7 O     8.0000    0    15.999   -3.971185    1.663199   -3.157860
   8 O     8.0000    0    15.999    0.007752    4.969370   -2.315495
   9 O     8.0000    0    15.999   -4.813157    1.320887    2.261043
  10 O     8.0000    0    15.999   -0.578927    4.293157    3.112141
  11 O     8.0000    0    15.999    3.519599    3.498860    2.320707
  12 O     8.0000    0    15.999    3.964537   -1.656842    3.153609
  13 O     8.0000    0    15.999    4.321640   -2.486173   -2.266501
  14 O     8.0000    0    15.999    3.459424    2.620216   -3.105626
  15 C     6.0000    0    12.011   -4.817814   -0.523307   -3.545440
  16 C     6.0000    0    12.011   -4.832565   -0.716948    3.479706
  17 C     6.0000    0    12.011    3.006869   -3.797730    3.537537
  18 C     6.0000    0    12.011    2.891325   -3.934825   -3.488957
  19 C     6.0000    0    12.011    1.991497    4.444663   -3.510313
  20 C     6.0000    0    12.011    1.750079    4.535363    3.517727
  21 C     6.0000    0    12.011   -6.617644   -0.840284   -5.724350
  22 H     1.0000    0     1.008   -7.360798    0.996837   -6.345492
  23 H     1.0000    0     1.008   -5.591627   -1.741855   -7.300775
  24 H     1.0000    0     1.008   -8.166720   -2.115965   -5.175137
  25 C     6.0000    0    12.011    2.643506    6.165190   -5.679024
  26 H     1.0000    0     1.008    2.298810    8.143136   -5.133838
  27 H     1.0000    0     1.008    4.615874    5.896903   -6.271184
  28 H     1.0000    0     1.008    1.374657    5.724128   -7.274653
  29 C     6.0000    0    12.011    4.086380   -5.353948   -5.644241
  30 H     1.0000    0     1.008    4.374055   -4.027671   -7.228169
  31 H     1.0000    0     1.008    5.958378   -6.056401   -5.068831
  32 H     1.0000    0     1.008    2.871584   -6.919419   -6.265989
  33 C     6.0000    0    12.011    4.042304   -5.296624    5.721331
  34 H     1.0000    0     1.008    4.144640   -7.310084    5.209286
  35 H     1.0000    0     1.008    5.907453   -4.582415    6.291376
  36 H     1.0000    0     1.008    2.719184   -5.120128    7.324478
  37 C     6.0000    0    12.011   -6.673386   -0.871597    5.641949
  38 H     1.0000    0     1.008   -6.986473   -2.845083    6.208480
  39 H     1.0000    0     1.008   -5.882910    0.190133    7.254251
  40 H     1.0000    0     1.008   -8.465708    0.039265    5.108159
  41 C     6.0000    0    12.011    2.510066    6.202940    5.692444
  42 H     1.0000    0     1.008    3.035496    4.985000    7.302267
  43 H     1.0000    0     1.008    4.188780    7.316554    5.173820
  44 H     1.0000    0     1.008    0.943939    7.445846    6.254390
* core charge reduced due to ECP

--------------------------------
INTERNAL COORDINATES (ANGSTROEM)
--------------------------------
 Pd     0   0   0     0.000000000000     0.00000000     0.00000000
 Pd     1   0   0     3.183525967481     0.00000000     0.00000000
 Pd     1   2   0     3.181883710761    60.02594775     0.00000000
 O      1   2   3     2.022484319608   120.32289177    44.15713502
 O      1   2   3     2.015395316982   110.22327694   298.94356873
 O      1   2   3     2.015815632597    77.14390250   122.57955944
 O      1   2   3     2.022641504194    73.39874504   218.76012831
 O      2   1   3     2.015190689421    77.19563382   122.75098424
 O      2   1   3     2.022696482888   120.16615592    44.22484380
 O      2   1   3     2.022017966093    73.44854097   218.92458113
 O      2   1   3     2.015936426275   110.14844440   299.07287859
 O      3   1   2     2.022463650541   120.24635155    44.23096099
 O      3   1   2     2.015496065546    77.16396197   122.70799941
 O      3   1   2     2.022758247248    73.39633666   218.87719105
 O      3   1   2     2.015376793475   110.23828081   299.04325353
 C      7   1   2     1.256525264105   129.57616247    25.02293112
 C     10   2   1     1.256535306645   129.53250425    25.01262590
 C      4   1   2     1.256506834227   129.49634671   345.94944640
 C     14   3   1     1.256591789330   129.61875040    24.95483582
 C      9   2   1     1.256520252741   129.59066166   345.70315684
 C     12   3   1     1.256547744021   129.54890233   345.74554477
 C     16   7   1     1.504903309922   116.21811471   160.42300880
 H     22  16   7     1.098996286514   110.91764658   164.66719571
 H     22  16   7     1.103770130859   108.41677983   284.81638812
 H     22  16   7     1.100972379782   109.71277374    41.94587775
 C     20   9   2     1.505008046622   116.20294296   160.60514448
 H     26  20   9     1.100932153153   109.71480229    41.83450746
 H     26  20   9     1.098965664511   110.91663937   164.55551643
 H     26  20   9     1.103755448479   108.41865981   284.70353357
 C     19  14   3     1.504884806839   116.19784069   160.55263924
 H     30  19  14     1.103762126328   108.43186675   284.95240124
 H     30  19  14     1.101008161141   109.69269005    42.07004496
 H     30  19  14     1.098982954781   110.93120883   164.76228722
 C     18   4   1     1.504927287925   116.27826755   160.32309813
 H     34  18   4     1.100724551792   109.81974310    39.33142823
 H     34  18   4     1.099087985811   110.88369555   162.20639352
 H     34  18   4     1.103924806793   108.33624133   282.07695182
 C     17  10   2     1.504933288181   116.24234801   160.30765154
 H     38  17  10     1.099063188201   110.89380894   162.46236011
 H     38  17  10     1.103894900413   108.34157160   282.36905979
 H     38  17  10     1.100767241774   109.80418608    39.59561842
 C     21  12   3     1.504928923365   116.25063344   160.53713110
 H     42  21  12     1.103811179887   108.36701425   283.09898522
 H     42  21  12     1.100788894698   109.81083318    40.32567845
 H     42  21  12     1.099027260016   110.87344053   163.13994010

---------------------------
INTERNAL COORDINATES (A.U.)
---------------------------
 Pd     0   0   0     0.000000000000     0.00000000     0.00000000
 Pd     1   0   0     6.015992218765     0.00000000     0.00000000
 Pd     1   2   0     6.012888803324    60.02594775     0.00000000
 O      1   2   3     3.821941474209   120.32289177    44.15713502
 O      1   2   3     3.808545200684   110.22327694   298.94356873
 O      1   2   3     3.809339482086    77.14390250   122.57955944
 O      1   2   3     3.822238510029    73.39874504   218.76012831
 O      2   1   3     3.808158510633    77.19563382   122.75098424
 O      2   1   3     3.822342404704   120.16615592    44.22484380
 O      2   1   3     3.821060193783    73.44854097   218.92458113
 O      2   1   3     3.809567749056   110.14844440   299.07287859
 O      3   1   2     3.821902415333   120.24635155    44.23096099
 O      3   1   2     3.808735587877    77.16396197   122.70799941
 O      3   1   2     3.822459122428    73.39633666   218.87719105
 O      3   1   2     3.808510196329   110.23828081   299.04325353
 C      7   1   2     2.374488629512   129.57616247    25.02293112
 C     10   2   1     2.374507607162   129.53250425    25.01262590
 C      4   1   2     2.374453802090   129.49634671   345.94944640
 C     14   3   1     2.374614343967   129.61875040    24.95483582
 C      9   2   1     2.374479159405   129.59066166   345.70315684
 C     12   3   1     2.374531110396   129.54890233   345.74554477
 C     16   7   1     2.843855113785   116.21811471   160.42300880
 H     22  16   7     2.076802003709   110.91764658   164.66719571
 H     22  16   7     2.085823262127   108.41677983   284.81638812
 H     22  16   7     2.080536278800   109.71277374    41.94587775
 C     20   9   2     2.844053037463   116.20294296   160.60514448
 H     26  20   9     2.080460261488   109.71480229    41.83450746
 H     26  20   9     2.076744136508   110.91663937   164.55551643
 H     26  20   9     2.085795516449   108.41865981   284.70353357
 C     19  14   3     2.843820148025   116.19784069   160.55263924
 H     30  19  14     2.085808135755   108.43186675   284.95240124
 H     30  19  14     2.080603895768   109.69269005    42.07004496
 H     30  19  14     2.076776810384   110.93120883   164.76228722
 C     18   4   1     2.843900425643   116.27826755   160.32309813
 H     34  18   4     2.080067951769   109.81974310    39.33142823
 H     34  18   4     2.076975290267   110.88369555   162.20639352
 H     34  18   4     2.086115557281   108.33624133   282.07695182
 C     17  10   2     2.843911764484   116.24234801   160.30765154
 H     38  17  10     2.076928429574   110.89380894   162.46236011
 H     38  17  10     2.086059042412   108.34157160   282.36905979
 H     38  17  10     2.080148624145   109.80418608    39.59561842
 C     21  12   3     2.843903516176   116.25063344   160.53713110
 H     42  21  12     2.085900833547   108.36701425   283.09898522
 H     42  21  12     2.080189542242   109.81083318    40.32567845
 H     42  21  12     2.076860535144   110.87344053   163.13994010

---------------------
BASIS SET INFORMATION
---------------------
There are 4 groups of distinct atoms

 Group   1 Type Pd  : 7s7p6d1f contracted to 6s4p3d1f pattern {211111/4111/411/1}
 Group   2 Type O   : 11s6p2d1f contracted to 5s3p2d1f pattern {62111/411/11/1}
 Group   3 Type C   : 11s6p2d1f contracted to 5s3p2d1f pattern {62111/411/11/1}
 Group   4 Type H   : 5s1p contracted to 3s1p pattern {311/1}

Atom   0Pd   basis set group =>   1
Atom   1Pd   basis set group =>   1
Atom   2Pd   basis set group =>   1
Atom   3O    basis set group =>   2
Atom   4O    basis set group =>   2
Atom   5O    basis set group =>   2
Atom   6O    basis set group =>   2
Atom   7O    basis set group =>   2
Atom   8O    basis set group =>   2
Atom   9O    basis set group =>   2
Atom  10O    basis set group =>   2
Atom  11O    basis set group =>   2
Atom  12O    basis set group =>   2
Atom  13O    basis set group =>   2
Atom  14O    basis set group =>   2
Atom  15C    basis set group =>   3
Atom  16C    basis set group =>   3
Atom  17C    basis set group =>   3
Atom  18C    basis set group =>   3
Atom  19C    basis set group =>   3
Atom  20C    basis set group =>   3
Atom  21C    basis set group =>   3
Atom  22H    basis set group =>   4
Atom  23H    basis set group =>   4
Atom  24H    basis set group =>   4
Atom  25C    basis set group =>   3
Atom  26H    basis set group =>   4
Atom  27H    basis set group =>   4
Atom  28H    basis set group =>   4
Atom  29C    basis set group =>   3
Atom  30H    basis set group =>   4
Atom  31H    basis set group =>   4
Atom  32H    basis set group =>   4
Atom  33C    basis set group =>   3
Atom  34H    basis set group =>   4
Atom  35H    basis set group =>   4
Atom  36H    basis set group =>   4
Atom  37C    basis set group =>   3
Atom  38H    basis set group =>   4
Atom  39H    basis set group =>   4
Atom  40H    basis set group =>   4
Atom  41C    basis set group =>   3
Atom  42H    basis set group =>   4
Atom  43H    basis set group =>   4
Atom  44H    basis set group =>   4
---------------------------------
AUXILIARY/J BASIS SET INFORMATION
---------------------------------
There are 4 groups of distinct atoms

 Group   1 Type Pd  : 11s5p5d3f3g contracted to 8s5p5d2f3g pattern {41111111/11111/11111/21/111}
 Group   2 Type O   : 12s5p4d2f1g contracted to 6s4p3d1f1g pattern {711111/2111/211/2/1}
 Group   3 Type C   : 12s5p4d2f1g contracted to 6s4p3d1f1g pattern {711111/2111/211/2/1}
 Group   4 Type H   : 5s2p1d contracted to 3s1p1d pattern {311/2/1}

Atom   0Pd   basis set group =>   1
Atom   1Pd   basis set group =>   1
Atom   2Pd   basis set group =>   1
Atom   3O    basis set group =>   2
Atom   4O    basis set group =>   2
Atom   5O    basis set group =>   2
Atom   6O    basis set group =>   2
Atom   7O    basis set group =>   2
Atom   8O    basis set group =>   2
Atom   9O    basis set group =>   2
Atom  10O    basis set group =>   2
Atom  11O    basis set group =>   2
Atom  12O    basis set group =>   2
Atom  13O    basis set group =>   2
Atom  14O    basis set group =>   2
Atom  15C    basis set group =>   3
Atom  16C    basis set group =>   3
Atom  17C    basis set group =>   3
Atom  18C    basis set group =>   3
Atom  19C    basis set group =>   3
Atom  20C    basis set group =>   3
Atom  21C    basis set group =>   3
Atom  22H    basis set group =>   4
Atom  23H    basis set group =>   4
Atom  24H    basis set group =>   4
Atom  25C    basis set group =>   3
Atom  26H    basis set group =>   4
Atom  27H    basis set group =>   4
Atom  28H    basis set group =>   4
Atom  29C    basis set group =>   3
Atom  30H    basis set group =>   4
Atom  31H    basis set group =>   4
Atom  32H    basis set group =>   4
Atom  33C    basis set group =>   3
Atom  34H    basis set group =>   4
Atom  35H    basis set group =>   4
Atom  36H    basis set group =>   4
Atom  37C    basis set group =>   3
Atom  38H    basis set group =>   4
Atom  39H    basis set group =>   4
Atom  40H    basis set group =>   4
Atom  41C    basis set group =>   3
Atom  42H    basis set group =>   4
Atom  43H    basis set group =>   4
Atom  44H    basis set group =>   4
-------------------------
ECP PARAMETER INFORMATION
-------------------------

 Group 1, Type Pd ECP Def2-ECP (replacing 28 core electrons, lmax=3)

Atom   0Pd   ECP group =>   1
Atom   1Pd   ECP group =>   1
Atom   2Pd   ECP group =>   1



           ************************************************************
           *        Program running with 16 parallel MPI-processes    *
           *              working on a common directory               *
           ************************************************************
------------------------------------------------------------------------------
                             ORCA STARTUP CALCULATIONS
                           -- RI-GTO INTEGRALS CHOSEN --
------------------------------------------------------------------------------
------------------------------------------------------------------------------
                   ___                                                        
                  /   \      - P O W E R E D   B Y -                         
                 /     \                                                     
                 |  |  |   _    _      __       _____    __    __             
                 |  |  |  | |  | |    /  \     |  _  \  |  |  /  |          
                  \  \/   | |  | |   /    \    | | | |  |  | /  /          
                 / \  \   | |__| |  /  /\  \   | |_| |  |  |/  /          
                |  |  |   |  __  | /  /__\  \  |    /   |      \           
                |  |  |   | |  | | |   __   |  |    \   |  |\   \          
                \     /   | |  | | |  |  |  |  | |\  \  |  | \   \       
                 \___/    |_|  |_| |__|  |__|  |_| \__\ |__|  \__/        
                                                                              
                      - O R C A' S   B I G   F R I E N D -                    
                                      &                                       
                       - I N T E G R A L  F E E D E R -                       
                                                                              
 v1 FN, 2020, v2 2021, v3 2022-2024                                           
------------------------------------------------------------------------------


----------------------
SHARK INTEGRAL PACKAGE
----------------------

Number of atoms                             ...     45
Number of basis functions                   ...    972
Number of shells                            ...    378
Maximum angular momentum                    ...      3
Integral batch strategy                     ... SHARK/LIBINT Hybrid
RI-J (if used) integral strategy            ... SPLIT-RIJ (Revised 2003 algorithm where possible)
Printlevel                                  ...      1
Contraction scheme used                     ... SEGMENTED contraction
Prescreening option                         ... SCHWARTZ
   Thresh                                   ... 2.500e-11
   Tcut                                     ... 2.500e-12
   Tpresel                                  ... 2.500e-12 
Coulomb Range Separation                    ... NOT USED
Exchange Range Separation                   ... NOT USED
Multipole approximations                    ... NOT USED
Finite Nucleus Model                        ... NOT USED
CABS basis                                  ... NOT available
Auxiliary Coulomb fitting basis             ... AVAILABLE
   # of basis functions in Aux-J            ...   1641
   # of shells in Aux-J                     ...    519
   Maximum angular momentum in Aux-J        ...      4
Auxiliary J/K fitting basis                 ... NOT available
Auxiliary Correlation fitting basis         ... NOT available
Auxiliary 'external' fitting basis          ... NOT available

Checking pre-screening integrals            ... done (  0.1 sec) Dimension = 378
Check shell pair data                       ... done (  0.1 sec)
Shell pair information
Shell pair cut-off parameter TPreSel        ...   2.5e-12
Total number of shell pairs                 ...     71631
Shell pairs after pre-screening             ...     46355
Total number of primitive shell pairs       ...    212847
Primitive shell pairs kept                  ...     88272
          la=0 lb=0:  11250 shell pairs
          la=1 lb=0:  13396 shell pairs
          la=1 lb=1:   3993 shell pairs
          la=2 lb=0:   6833 shell pairs
          la=2 lb=1:   4139 shell pairs
          la=2 lb=2:   1128 shell pairs
          la=3 lb=0:   2787 shell pairs
          la=3 lb=1:   1728 shell pairs
          la=3 lb=2:    921 shell pairs
          la=3 lb=3:    180 shell pairs

Calculating one electron integrals          ... done (  0.1 sec)
Calculating ECP integrals                   ... done (  2.3 sec)
Calculating RI/J V-Matrix + Cholesky decomp.... done (  0.2 sec)
Calculating Nuclear repulsion               ... done (  0.0 sec) ENN=   3931.443884233937 Eh

Diagonalization of the overlap matrix:
Smallest eigenvalue                        ... 2.828e-04
Time for diagonalization                   ...    0.380 sec
Threshold for overlap eigenvalues          ... 1.000e-07
Number of eigenvalues below threshold      ... 0
Time for construction of square roots      ...    0.244 sec
Total time needed                          ...    0.694 sec

-------------------
DFT GRID GENERATION
-------------------

General Integration Accuracy     IntAcc      ... 4.388
Radial Grid Type                 RadialGrid  ... OptM3 with GC (2021)
Angular Grid (max. ang.)         AngularGrid ... 4 (Lebedev-302)
Angular grid pruning method      GridPruning ... 4 (adaptive)
Weight generation scheme         WeightScheme... mBecke (2022)
Basis function cutoff            BFCut       ... 1.0000e-11
Integration weight cutoff        WCut        ... 1.0000e-14
Partially contracted basis set               ... off
Rotationally invariant grid construction     ... off
Angular grids for H and He will be reduced by one unit

Total number of grid points                  ...   229988
Total number of batches                      ...     3615
Average number of points per batch           ...       63
Average number of grid points per atom       ...     5111

--------------------
COSX GRID GENERATION
--------------------

GRIDX 1
-------
General Integration Accuracy     IntAcc      ... 3.816
Radial Grid Type                 RadialGrid  ... OptM3 with GC (2021)
Angular Grid (max. ang.)         AngularGrid ... 1 (Lebedev-50)
Angular grid pruning method      GridPruning ... 4 (adaptive)
Weight generation scheme         WeightScheme... mBecke (2022)
Basis function cutoff            BFCut       ... 1.0000e-11
Integration weight cutoff        WCut        ... 1.0000e-14
Partially contracted basis set               ... on
Rotationally invariant grid construction     ... off
Angular grids for H and He will be reduced by one unit

Total number of grid points                  ...    38715
Total number of batches                      ...      331
Average number of points per batch           ...      116
Average number of grid points per atom       ...      860
UseSFitting                                  ... on

GRIDX 2
-------
General Integration Accuracy     IntAcc      ... 4.020
Radial Grid Type                 RadialGrid  ... OptM3 with GC (2021)
Angular Grid (max. ang.)         AngularGrid ... 2 (Lebedev-110)
Angular grid pruning method      GridPruning ... 4 (adaptive)
Weight generation scheme         WeightScheme... mBecke (2022)
Basis function cutoff            BFCut       ... 1.0000e-11
Integration weight cutoff        WCut        ... 1.0000e-14
Partially contracted basis set               ... on
Rotationally invariant grid construction     ... off
Angular grids for H and He will be reduced by one unit

Total number of grid points                  ...    69027
Total number of batches                      ...      565
Average number of points per batch           ...      122
Average number of grid points per atom       ...     1534
UseSFitting                                  ... on

GRIDX 3
-------
General Integration Accuracy     IntAcc      ... 4.338
Radial Grid Type                 RadialGrid  ... OptM3 with GC (2021)
Angular Grid (max. ang.)         AngularGrid ... 3 (Lebedev-194)
Angular grid pruning method      GridPruning ... 4 (adaptive)
Weight generation scheme         WeightScheme... mBecke (2022)
Basis function cutoff            BFCut       ... 1.0000e-11
Integration weight cutoff        WCut        ... 1.0000e-14
Partially contracted basis set               ... on
Rotationally invariant grid construction     ... off
Angular grids for H and He will be reduced by one unit

Total number of grid points                  ...   135809
Total number of batches                      ...     1080
Average number of points per batch           ...      125
Average number of grid points per atom       ...     3018
UseSFitting                                  ... on
Initializing property integral containers    ... done (  0.2 sec)

SHARK setup successfully completed in  12.2 seconds

Maximum memory used throughout the entire STARTUP-calculation: 96.7 MB


           ************************************************************
           *        Program running with 16 parallel MPI-processes    *
           *              working on a common directory               *
           ************************************************************
-------------------------------------------------------------------------------
                                 ORCA GUESS
                   Start orbitals & Density for SCF / CASSCF
-------------------------------------------------------------------------------

------------
SCF SETTINGS
------------
Hamiltonian:
 Density Functional     Method          .... DFT(GTOs)
  Functional kind                       .... Exchange
  Functional name                       .... Re-regularized SCAN exchange by Furness et al
  Functional family                     .... MGGA
  Functional refs                              
    [ 0] J. W. Furness, A. D. Kaplan, J. Ning, J. P. Perdew, and J. Sun.,  J. Phys. Chem. Lett. 11, 8208-8215 (2020), doi: 10.1021/acs.jpclett.0c02405
    [ 1] J. W. Furness, A. D. Kaplan, J. Ning, J. P. Perdew, and J. Sun.,  J. Phys. Chem. Lett. 11, 9248-9248 (2020), doi: 10.1021/acs.jpclett.0c03077
  Functional external parameters        .... 6
    Parameter  0 _c1        =  6.670000e-01 : c1 parameter        
    Parameter  1 _c2        =  8.000000e-01 : c2 parameter        
    Parameter  2 _d         =  1.240000e+00 : d parameter         
    Parameter  3 _k1        =  6.500000e-02 : k1 parameter        
    Parameter  4 _eta       =  1.000000e-03 : eta parameter       
    Parameter  5 _dp2       =  3.610000e-01 : dp2 parameter       
  Functional kind                       .... Correlation
  Functional name                       .... Re-regularized SCAN correlation by Furness et al
  Functional family                     .... MGGA
  Functional refs                              
    [ 0] J. W. Furness, A. D. Kaplan, J. Ning, J. P. Perdew, and J. Sun.,  J. Phys. Chem. Lett. 11, 8208-8215 (2020), doi: 10.1021/acs.jpclett.0c02405
    [ 1] J. W. Furness, A. D. Kaplan, J. Ning, J. P. Perdew, and J. Sun.,  J. Phys. Chem. Lett. 11, 9248-9248 (2020), doi: 10.1021/acs.jpclett.0c03077
  Functional external parameters        .... 1
    Parameter  0 _eta       =  1.000000e-03 : Regularization parameter
 Gradients option       PostSCFGGA      .... off
 Hybrid DFT is turned on
   Fraction HF Exchange ScalHFX         ....  0.100000
   Scaling of DF-GGA-X  ScalDFX         ....  0.900000
   Scaling of DF-GGA-C  ScalDFC         ....  1.000000
   Scaling of DF-LDA-C  ScalLDAC        ....  1.000000
   Perturbative correction              ....  0.000000
   NL short-range parameter             .... 11.900000
 RI-approximation to the Coulomb term is turned on
   Number of AuxJ basis functions       .... 1641
   RIJ-COSX (HFX calculated with COS-X)).... on


General Settings:
 Integral files         IntName         .... CS_PdOAc_001_sp_02
 Hartree-Fock type      HFTyp           .... RHF
 Total Charge           Charge          ....    0
 Multiplicity           Mult            ....    1
 Number of Electrons    NEL             ....  240
 Basis Dimension        Dim             ....  972
 Nuclear Repulsion      ENuc            ....   3931.4438842339 Eh

Convergence Acceleration:
 AO-DIIS                CNVDIIS         .... on
   Start iteration      DIISMaxIt       ....     0
   Startup error        DIISStart       ....  0.200000
   # of expansion vecs  DIISMaxEq       ....     5
   Bias factor          DIISBfac        ....   1.050
   Max. coefficient     DIISMaxC        ....  10.000
 MO-DIIS                CNVKDIIS        .... off
 Trust-Rad. Augm. Hess. CNVTRAH         .... auto
   Auto Start mean grad. ratio tolernc. ....  1.125000
   Auto Start start iteration           ....    50
   Auto Start num. interpolation iter.  ....    10
   Max. Number of Micro iterations      ....    24
   Max. Number of Macro iterations      .... Maxiter - #DIIS iter
   Number of Davidson start vectors     ....     2
   Converg. threshold    (grad. norm)   ....   1.000e-05
   Grad. Scal. Fac. for Micro threshold ....   0.100
   Minimum threshold for Micro iter.    ....   1.000e-02
   NR start threshold (gradient norm)   ....   1.000e-04
   Initial trust radius                 ....   0.400
   Minimum AH scaling param. (alpha)    ....   1.000
   Maximum AH scaling param. (alpha)    .... 1000.000
   Quad. conv. algorithm                .... NR
   White noise on init. David. guess    .... on
   Maximum white noise                  ....   0.010
   Pseudo random numbers                .... off
   Inactive MOs                         .... canonical
   Orbital update algorithm             .... Taylor
   Preconditioner                       .... Diag
   Full preconditioner red. dimension   ....   250
 SOSCF                  CNVSOSCF        .... on
   Start iteration      SOSCFMaxIt      ....   150
   Startup grad/error   SOSCFStart      ....  0.001000
   Hessian update       SOSCFHessUp     .... L-BFGS
 Level Shifting         CNVShift        .... on
   Level shift para.    LevelShift      ....    0.2500
   Turn off err/grad.   ShiftErr        ....    0.0000
 Zerner damping         CNVZerner       .... off
 Static damping         CNVDamp         .... on
   Fraction old density DampFac         ....    0.8500
   Max. Damping (<1)    DampMax         ....    0.9800
   Min. Damping (>=0)   DampMin         ....    0.0000
   Turn off err/grad.   DampErr         ....    0.0300

SCF Procedure:
 Maximum # iterations   MaxIter         ....  1500
 SCF integral mode      SCFMode         .... Direct
   Integral package                     .... SHARK and LIBINT hybrid scheme
 Reset frequency        DirectResetFreq ....    20
 Integral Threshold     Thresh          ....  2.500e-11 Eh
 Primitive CutOff       TCut            ....  2.500e-12 Eh

Convergence Tolerance:
 Convergence Check Mode ConvCheckMode   .... Total+1el-Energy
 Convergence forced     ConvForced      .... 0
 Energy Change          TolE            ....  1.000e-08 Eh
 1-El. energy change                    ....  1.000e-05 Eh
 Orbital Gradient       TolG            ....  1.000e-05
 Orbital Rotation angle TolX            ....  1.000e-05
 DIIS Error             TolErr          ....  5.000e-07

------------------------------
INITIAL GUESS: MODEL POTENTIAL
------------------------------
Loading Hartree-Fock densities                     ... done
Atomic calculation to generate a density for atom 0 (Pd with ECP)
  Multiplicity assumed   :    3
  Atomic configuration   : 1s2 2s2 2p6 3s2 3p6 4s2 3d10 4p6 5s2 4d8 
  Number of open shells  : 1
  Command: /opt/apps/software/ORCA/6.0.0-gompi-2023b/bin/orca CS_PdOAc_001_sp_02_atom46.inp "" > CS_PdOAc_001_sp_02_atom46.out
Returned from the atomic calculation with res=0
Calculating cut-offs                               ... done
Initializing the effective Hamiltonian             ... done
Setting up the integral package (SHARK)            ... done
Starting the Coulomb interaction                   ... done (   1.0 sec)
Making the grid                                    ... done (   0.8 sec)
Mapping shells                                     ... done
Starting the XC term evaluation                    ... done (   0.4 sec)
  promolecular density results
     # of electrons  =    323.973552280
     EX              =   -580.303123239
     EC              =    -13.624873643
     EX+EC           =   -593.927996882
Transforming the Hamiltonian                       ... done (   0.3 sec)
Diagonalizing the Hamiltonian                      ... done (   0.4 sec)
Back transforming the eigenvectors                 ... done (   0.2 sec)
Now organizing SCF variables                       ... done
                      ------------------
                      INITIAL GUESS DONE (  16.8 sec)
                      ------------------
             **** ENERGY FILE WAS UPDATED (CS_PdOAc_001_sp_02.en.tmp) ****
Finished Guess after  18.5 sec
Maximum memory used throughout the entire GUESS-calculation: 79.6 MB


           ************************************************************
           *        Program running with 16 parallel MPI-processes    *
           *              working on a common directory               *
           ************************************************************

-------------------------------------------------------------------------------------------
                                      ORCA LEAN-SCF
                              memory conserving SCF solver
-------------------------------------------------------------------------------------------

----------------------------------------D-I-I-S--------------------------------------------
Iteration    Energy (Eh)           Delta-E    RMSDP     MaxDP     DIISErr   Damp  Time(sec)
-------------------------------------------------------------------------------------------
               ***  Starting incremental Fock matrix formation  ***
    1    -1753.8613457942205969     0.00e+00  4.15e-04  2.27e-02  4.64e-01  0.850  19.0
    2    -1754.1131334445685752    -2.52e-01  4.05e-04  1.89e-02  3.92e-01  0.850  13.5
                               ***Turning on AO-DIIS***
    3    -1754.2685607944372350    -1.55e-01  2.33e-04  1.49e-02  3.31e-01  0.850  13.3
    4    -1754.3652831742915623    -9.67e-02  1.59e-04  1.20e-02  2.80e-01  0.850  13.8
    5    -1754.4342773973389740    -6.90e-02  1.19e-04  9.54e-03  2.38e-01  0.850  13.8
    6    -1754.4886341611986609    -5.44e-02  9.73e-05  7.78e-03  2.02e-01  0.850  12.9
    7    -1754.5335050164562745    -4.49e-02  8.38e-05  6.65e-03  1.72e-01  0.850  13.2
    8    -1754.5709468537029352    -3.74e-02  7.19e-05  6.07e-03  1.46e-01  0.850  11.8
    9    -1754.6018052154072393    -3.09e-02  6.10e-05  5.26e-03  1.24e-01  0.850  11.7
   10    -1754.6272349130317707    -2.54e-02  5.11e-05  4.33e-03  1.05e-01  0.850  12.4
   11    -1754.6483193920589656    -2.11e-02  4.29e-05  3.58e-03  8.95e-02  0.850  12.8
   12    -1754.6658990199707659    -1.76e-02  3.62e-05  3.04e-03  7.61e-02  0.850  12.4
   13    -1754.6806004978557212    -1.47e-02  3.07e-05  2.64e-03  6.47e-02  0.850  11.0
   14    -1754.6929175960690372    -1.23e-02  2.60e-05  2.25e-03  5.49e-02  0.850  10.7
   15    -1754.7032602104377474    -1.03e-02  2.19e-05  1.89e-03  4.67e-02  0.850  11.6
   16    -1754.7119650867057317    -8.70e-03  1.85e-05  1.59e-03  3.97e-02  0.850  10.9
   17    -1754.7193049783641072    -7.34e-03  1.57e-05  1.35e-03  3.37e-02  0.850  10.2
   18    -1754.7255018453283810    -6.20e-03  1.33e-05  1.16e-03  2.86e-02  0.850  13.0
   19    -1754.7307389178672565    -5.24e-03  7.49e-05  6.56e-03  2.43e-02  0.000  10.3
                              *** Initializing SOSCF ***
---------------------------------------S-O-S-C-F--------------------------------------
Iteration    Energy (Eh)           Delta-E    RMSDP     MaxDP     MaxGrad    Time(sec)
--------------------------------------------------------------------------------------
   20    -1754.7599381363220346    -2.92e-02  3.58e-06  1.80e-04  4.00e-04    12.7
               *** Restarting incremental Fock matrix formation ***
   21    -1754.7599352722513686     2.86e-06  3.68e-06  1.80e-04  4.75e-05    17.9
   22    -1754.7599347554009910     5.17e-07  1.73e-06  1.60e-04  1.06e-04    10.9
   23    -1754.7599356210071164    -8.66e-07  1.04e-06  1.26e-04  2.75e-05    10.0
   24    -1754.7599354005874375     2.20e-07  6.71e-07  7.04e-05  5.20e-05    10.4
   25    -1754.7599356684845588    -2.68e-07  1.33e-07  8.28e-06  1.53e-06     9.9
                  *** Gradient check signals convergence ***

               *****************************************************
               *                     SUCCESS                       *
               *           SCF CONVERGED AFTER  25 CYCLES          *
               *****************************************************

Recomputing exchange energy using gridx3       ... done (   21.592 sec)
Old exchange energy                            :    -20.295739792 Eh
New exchange energy                            :    -20.295742844 Eh
Exchange energy change after final integration :     -0.000003052 Eh
Total energy after final integration           :  -1754.759938721 Eh
             **** ENERGY FILE WAS UPDATED (CS_PdOAc_001_sp_02.en.tmp) ****

----------------
TOTAL SCF ENERGY
----------------

Total Energy       :      -1754.75993872070444 Eh          -47749.44547 eV

Components:
Nuclear Repulsion  :       3931.44388423393730 Eh          106980.02685 eV
Electronic Energy  :      -5686.20381990242186 Eh         -154729.47223 eV
One Electron Energy:     -10397.67825371012441 Eh         -282935.20943 eV
Two Electron Energy:       4711.47443380770255 Eh          128205.73720 eV

Virial components:
Potential Energy   :      -3264.01499411413442 Eh          -88818.36343 eV
Kinetic Energy     :       1509.25505539342976 Eh           41068.91796 eV
Virial Ratio       :          2.16266626535386

DFT components:
N(Alpha)           :      119.999858520350 electrons
N(Beta)            :      119.999858520350 electrons
N(Total)           :      239.999717040699 electrons
E(X)               :     -184.108235948530 Eh       
E(C)               :       -8.382251159709 Eh       
E(XC)              :     -192.490487108239 Eh       

---------------
SCF CONVERGENCE
---------------

  Last Energy change         ...    2.6790e-07  Tolerance :   1.0000e-08
  Last MAX-Density change    ...    8.2793e-06  Tolerance :   1.0000e-07
  Last RMS-Density change    ...    1.3276e-07  Tolerance :   5.0000e-09
  Last DIIS Error            ...    4.0012e-04  Tolerance :   5.0000e-07
  Last Orbital Gradient      ...    1.5251e-06  Tolerance :   1.0000e-05
  Last Orbital Rotation      ...    2.6174e-06  Tolerance :   1.0000e-05


----------------
ORBITAL ENERGIES
----------------

  NO   OCC          E(Eh)            E(eV) 
   0   2.0000     -19.131926      -520.6062 
   1   2.0000     -19.131896      -520.6053 
   2   2.0000     -19.131865      -520.6045 
   3   2.0000     -19.131778      -520.6021 
   4   2.0000     -19.131740      -520.6011 
   5   2.0000     -19.131735      -520.6010 
   6   2.0000     -19.129156      -520.5308 
   7   2.0000     -19.129138      -520.5303 
   8   2.0000     -19.129112      -520.5296 
   9   2.0000     -19.128998      -520.5265 
  10   2.0000     -19.128996      -520.5264 
  11   2.0000     -19.128948      -520.5251 
  12   2.0000     -10.287090      -279.9260 
  13   2.0000     -10.287082      -279.9257 
  14   2.0000     -10.287071      -279.9254 
  15   2.0000     -10.287068      -279.9254 
  16   2.0000     -10.287063      -279.9252 
  17   2.0000     -10.287045      -279.9247 
  18   2.0000     -10.164179      -276.5814 
  19   2.0000     -10.164166      -276.5810 
  20   2.0000     -10.164154      -276.5807 
  21   2.0000     -10.164131      -276.5801 
  22   2.0000     -10.164126      -276.5799 
  23   2.0000     -10.164084      -276.5788 
  24   2.0000      -3.504275       -95.3562 
  25   2.0000      -3.504224       -95.3548 
  26   2.0000      -3.504218       -95.3546 
  27   2.0000      -2.186752       -59.5046 
  28   2.0000      -2.186749       -59.5045 
  29   2.0000      -2.186739       -59.5042 
  30   2.0000      -2.185909       -59.4816 
  31   2.0000      -2.185896       -59.4813 
  32   2.0000      -2.185676       -59.4753 
  33   2.0000      -2.145644       -58.3859 
  34   2.0000      -2.144842       -58.3641 
  35   2.0000      -2.144833       -58.3639 
  36   2.0000      -1.100962       -29.9587 
  37   2.0000      -1.097062       -29.8526 
  38   2.0000      -1.097024       -29.8515 
  39   2.0000      -1.094604       -29.7857 
  40   2.0000      -1.094589       -29.7853 
  41   2.0000      -1.094406       -29.7803 
  42   2.0000      -1.011845       -27.5337 
  43   2.0000      -1.011821       -27.5330 
  44   2.0000      -1.008501       -27.4427 
  45   2.0000      -1.008087       -27.4314 
  46   2.0000      -1.008065       -27.4308 
  47   2.0000      -1.006424       -27.3862 
  48   2.0000      -0.745135       -20.2762 
  49   2.0000      -0.742717       -20.2104 
  50   2.0000      -0.742697       -20.2098 
  51   2.0000      -0.742658       -20.2088 
  52   2.0000      -0.742624       -20.2078 
  53   2.0000      -0.741680       -20.1821 
  54   2.0000      -0.576252       -15.6806 
  55   2.0000      -0.566048       -15.4029 
  56   2.0000      -0.566037       -15.4026 
  57   2.0000      -0.560910       -15.2631 
  58   2.0000      -0.560882       -15.2624 
  59   2.0000      -0.558011       -15.1843 
  60   2.0000      -0.522167       -14.2089 
  61   2.0000      -0.516414       -14.0523 
  62   2.0000      -0.516383       -14.0515 
  63   2.0000      -0.503950       -13.7132 
  64   2.0000      -0.503938       -13.7129 
  65   2.0000      -0.490039       -13.3346 
  66   2.0000      -0.482336       -13.1250 
  67   2.0000      -0.471407       -12.8276 
  68   2.0000      -0.471392       -12.8272 
  69   2.0000      -0.469444       -12.7742 
  70   2.0000      -0.469009       -12.7624 
  71   2.0000      -0.468892       -12.7592 
  72   2.0000      -0.468862       -12.7584 
  73   2.0000      -0.462631       -12.5888 
  74   2.0000      -0.462623       -12.5886 
  75   2.0000      -0.461492       -12.5578 
  76   2.0000      -0.454263       -12.3611 
  77   2.0000      -0.454252       -12.3608 
  78   2.0000      -0.402162       -10.9434 
  79   2.0000      -0.402159       -10.9433 
  80   2.0000      -0.401668       -10.9300 
  81   2.0000      -0.401667       -10.9299 
  82   2.0000      -0.401260       -10.9188 
  83   2.0000      -0.400271       -10.8919 
  84   2.0000      -0.393774       -10.7151 
  85   2.0000      -0.388673       -10.5763 
  86   2.0000      -0.388630       -10.5752 
  87   2.0000      -0.381499       -10.3811 
  88   2.0000      -0.375427       -10.2159 
  89   2.0000      -0.375408       -10.2154 
  90   2.0000      -0.362439        -9.8625 
  91   2.0000      -0.362414        -9.8618 
  92   2.0000      -0.349137        -9.5005 
  93   2.0000      -0.339447        -9.2368 
  94   2.0000      -0.339395        -9.2354 
  95   2.0000      -0.328347        -8.9348 
  96   2.0000      -0.328331        -8.9344 
  97   2.0000      -0.320203        -8.7132 
  98   2.0000      -0.318194        -8.6585 
  99   2.0000      -0.317855        -8.6493 
 100   2.0000      -0.317811        -8.6481 
 101   2.0000      -0.307260        -8.3610 
 102   2.0000      -0.307242        -8.3605 
 103   2.0000      -0.302182        -8.2228 
 104   2.0000      -0.301679        -8.2091 
 105   2.0000      -0.299234        -8.1426 
 106   2.0000      -0.299197        -8.1416 
 107   2.0000      -0.294106        -8.0030 
 108   2.0000      -0.280360        -7.6290 
 109   2.0000      -0.274003        -7.4560 
 110   2.0000      -0.261017        -7.1026 
 111   2.0000      -0.260986        -7.1018 
 112   2.0000      -0.259172        -7.0524 
 113   2.0000      -0.253616        -6.9012 
 114   2.0000      -0.253586        -6.9004 
 115   2.0000      -0.239249        -6.5103 
 116   2.0000      -0.239236        -6.5099 
 117   2.0000      -0.234602        -6.3839 
 118   2.0000      -0.214585        -5.8391 
 119   2.0000      -0.214527        -5.8376 
 120   0.0000      -0.114032        -3.1030 
 121   0.0000      -0.095164        -2.5895 
 122   0.0000      -0.095138        -2.5888 
 123   0.0000      -0.007449        -0.2027 
 124   0.0000      -0.006301        -0.1715 
 125   0.0000      -0.006168        -0.1679 
 126   0.0000      -0.004134        -0.1125 
 127   0.0000       0.000468         0.0127 
 128   0.0000       0.000491         0.0134 
 129   0.0000       0.019178         0.5218 
 130   0.0000       0.035920         0.9774 
*Only the first 10 virtual orbitals were printed.

                    ********************************
                    * MULLIKEN POPULATION ANALYSIS *
                    ********************************

-----------------------
MULLIKEN ATOMIC CHARGES
-----------------------
   0 Pd:    0.556262
   1 Pd:    0.556650
   2 Pd:    0.556777
   3 O :   -0.445287
   4 O :   -0.437233
   5 O :   -0.436837
   6 O :   -0.445744
   7 O :   -0.437021
   8 O :   -0.445203
   9 O :   -0.445233
  10 O :   -0.436955
  11 O :   -0.445042
  12 O :   -0.436864
  13 O :   -0.445332
  14 O :   -0.437107
  15 C :    0.537213
  16 C :    0.536477
  17 C :    0.536709
  18 C :    0.537089
  19 C :    0.536595
  20 C :    0.536297
  21 C :   -0.341751
  22 H :    0.136965
  23 H :    0.135442
  24 H :    0.136490
  25 C :   -0.341559
  26 H :    0.136538
  27 H :    0.136939
  28 H :    0.135359
  29 C :   -0.342007
  30 H :    0.135505
  31 H :    0.136603
  32 H :    0.136971
  33 C :   -0.341718
  34 H :    0.136814
  35 H :    0.137233
  36 H :    0.135118
  37 C :   -0.341606
  38 H :    0.137138
  39 H :    0.135174
  40 H :    0.136821
  41 C :   -0.341906
  42 H :    0.135267
  43 H :    0.136810
  44 H :    0.137150
Sum of atomic charges:   -0.0000000

--------------------------------
MULLIKEN REDUCED ORBITAL CHARGES
--------------------------------
  0 Pds       :     2.531669  s :     2.531669
      pz      :     2.092972  p :     6.290199
      px      :     2.107311
      py      :     2.089916
      dz2     :     1.880971  d :     8.616670
      dxz     :     1.026395
      dyz     :     1.819159
      dx2y2   :     1.945767
      dxy     :     1.944377
      f0      :     0.000595  f :     0.005201
      f+1     :     0.001589
      f-1     :     0.000429
      f+2     :     0.000975
      f-2     :     0.000989
      f+3     :     0.000244
      f-3     :     0.000379

  1 Pds       :     2.531952  s :     2.531952
      pz      :     2.092845  p :     6.289733
      px      :     2.101607
      py      :     2.095281
      dz2     :     1.870024  d :     8.616461
      dxz     :     1.284737
      dyz     :     1.575183
      dx2y2   :     1.981547
      dxy     :     1.904970
      f0      :     0.000613  f :     0.005204
      f+1     :     0.001219
      f-1     :     0.000797
      f+2     :     0.000526
      f-2     :     0.001417
      f+3     :     0.000246
      f-3     :     0.000386

  2 Pds       :     2.531764  s :     2.531764
      pz      :     2.092885  p :     6.289815
      px      :     2.086602
      py      :     2.110328
      dz2     :     1.872342  d :     8.616441
      dxz     :     1.969359
      dyz     :     0.887479
      dx2y2   :     1.905344
      dxy     :     1.981918
      f0      :     0.000609  f :     0.005202
      f+1     :     0.000211
      f-1     :     0.001804
      f+2     :     0.001426
      f-2     :     0.000522
      f+3     :     0.000248
      f-3     :     0.000382

  3 O s       :     3.872022  s :     3.872022
      pz      :     1.507873  p :     4.538691
      px      :     1.392356
      py      :     1.638462
      dz2     :     0.005596  d :     0.032566
      dxz     :     0.005967
      dyz     :     0.005856
      dx2y2   :     0.007286
      dxy     :     0.007861
      f0      :     0.000198  f :     0.002008
      f+1     :     0.000422
      f-1     :     0.000136
      f+2     :     0.000335
      f-2     :     0.000389
      f+3     :     0.000282
      f-3     :     0.000247

  4 O s       :     3.871018  s :     3.871018
      pz      :     1.575052  p :     4.530691
      px      :     1.312840
      py      :     1.642798
      dz2     :     0.005478  d :     0.033549
      dxz     :     0.008102
      dyz     :     0.002719
      dx2y2   :     0.008656
      dxy     :     0.008593
      f0      :     0.000210  f :     0.001976
      f+1     :     0.000317
      f-1     :     0.000069
      f+2     :     0.000348
      f-2     :     0.000123
      f+3     :     0.000432
      f-3     :     0.000477

  5 O s       :     3.870696  s :     3.870696
      pz      :     1.574466  p :     4.530654
      px      :     1.470900
      py      :     1.485288
      dz2     :     0.005471  d :     0.033511
      dxz     :     0.004074
      dyz     :     0.006732
      dx2y2   :     0.008581
      dxy     :     0.008654
      f0      :     0.000209  f :     0.001976
      f+1     :     0.000175
      f-1     :     0.000213
      f+2     :     0.000125
      f-2     :     0.000346
      f+3     :     0.000428
      f-3     :     0.000480

  6 O s       :     3.872068  s :     3.872068
      pz      :     1.509002  p :     4.539134
      px      :     1.538855
      py      :     1.491277
      dz2     :     0.005576  d :     0.032534
      dxz     :     0.003355
      dyz     :     0.008447
      dx2y2   :     0.007892
      dxy     :     0.007265
      f0      :     0.000198  f :     0.002008
      f+1     :     0.000110
      f-1     :     0.000446
      f+2     :     0.000389
      f-2     :     0.000334
      f+3     :     0.000264
      f-3     :     0.000267

  7 O s       :     3.870862  s :     3.870862
      pz      :     1.573812  p :     4.530634
      px      :     1.553193
      py      :     1.403629
      dz2     :     0.005522  d :     0.033549
      dxz     :     0.002931
      dyz     :     0.007886
      dx2y2   :     0.008763
      dxy     :     0.008446
      f0      :     0.000209  f :     0.001976
      f+1     :     0.000116
      f-1     :     0.000275
      f+2     :     0.000257
      f-2     :     0.000215
      f+3     :     0.000430
      f-3     :     0.000474

  8 O s       :     3.871491  s :     3.871491
      pz      :     1.513387  p :     4.539158
      px      :     1.391945
      py      :     1.633826
      dz2     :     0.005491  d :     0.032545
      dxz     :     0.007230
      dyz     :     0.004485
      dx2y2   :     0.008047
      dxy     :     0.007292
      f0      :     0.000196  f :     0.002009
      f+1     :     0.000482
      f-1     :     0.000069
      f+2     :     0.000370
      f-2     :     0.000344
      f+3     :     0.000271
      f-3     :     0.000276

  9 O s       :     3.871749  s :     3.871749
      pz      :     1.509270  p :     4.538906
      px      :     1.596438
      py      :     1.433198
      dz2     :     0.005565  d :     0.032569
      dxz     :     0.003650
      dyz     :     0.008143
      dx2y2   :     0.008321
      dxy     :     0.006890
      f0      :     0.000197  f :     0.002009
      f+1     :     0.000063
      f-1     :     0.000494
      f+2     :     0.000400
      f-2     :     0.000321
      f+3     :     0.000285
      f-3     :     0.000250

 10 O s       :     3.870410  s :     3.870410
      pz      :     1.571499  p :     4.531063
      px      :     1.341941
      py      :     1.617624
      dz2     :     0.005501  d :     0.033507
      dxz     :     0.008372
      dyz     :     0.002445
      dx2y2   :     0.008805
      dxy     :     0.008383
      f0      :     0.000208  f :     0.001976
      f+1     :     0.000317
      f-1     :     0.000077
      f+2     :     0.000368
      f-2     :     0.000107
      f+3     :     0.000423
      f-3     :     0.000475

 11 O s       :     3.871660  s :     3.871660
      pz      :     1.512653  p :     4.538815
      px      :     1.554491
      py      :     1.471671
      dz2     :     0.005502  d :     0.032559
      dxz     :     0.008021
      dyz     :     0.003708
      dx2y2   :     0.007273
      dxy     :     0.008055
      f0      :     0.000196  f :     0.002008
      f+1     :     0.000346
      f-1     :     0.000206
      f+2     :     0.000344
      f-2     :     0.000371
      f+3     :     0.000291
      f-3     :     0.000255

 12 O s       :     3.870710  s :     3.870710
      pz      :     1.574374  p :     4.530668
      px      :     1.623067
      py      :     1.333227
      dz2     :     0.005511  d :     0.033510
      dxz     :     0.003770
      dyz     :     0.007031
      dx2y2   :     0.008436
      dxy     :     0.008763
      f0      :     0.000209  f :     0.001976
      f+1     :     0.000097
      f-1     :     0.000293
      f+2     :     0.000213
      f-2     :     0.000260
      f+3     :     0.000426
      f-3     :     0.000479

 13 O s       :     3.871666  s :     3.871666
      pz      :     1.508674  p :     4.539136
      px      :     1.612125
      py      :     1.418337
      dz2     :     0.005566  d :     0.032522
      dxz     :     0.007087
      dyz     :     0.004704
      dx2y2   :     0.006863
      dxy     :     0.008301
      f0      :     0.000198  f :     0.002009
      f+1     :     0.000237
      f-1     :     0.000320
      f+2     :     0.000322
      f-2     :     0.000400
      f+3     :     0.000264
      f-3     :     0.000268

 14 O s       :     3.870682  s :     3.870682
      pz      :     1.571725  p :     4.530914
      px      :     1.569446
      py      :     1.389744
      dz2     :     0.005498  d :     0.033534
      dxz     :     0.005259
      dyz     :     0.005572
      dx2y2   :     0.008388
      dxy     :     0.008818
      f0      :     0.000208  f :     0.001977
      f+1     :     0.000149
      f-1     :     0.000244
      f+2     :     0.000109
      f-2     :     0.000368
      f+3     :     0.000428
      f-3     :     0.000471

 15 C s       :     3.050392  s :     3.050392
      pz      :     0.743420  p :     2.114737
      px      :     0.725226
      py      :     0.646091
      dz2     :     0.049683  d :     0.270796
      dxz     :     0.024419
      dyz     :     0.067616
      dx2y2   :     0.062185
      dxy     :     0.066893
      f0      :     0.002628  f :     0.026862
      f+1     :     0.001316
      f-1     :     0.005527
      f+2     :     0.003501
      f-2     :     0.004378
      f+3     :     0.003606
      f-3     :     0.005906

 16 C s       :     3.050893  s :     3.050893
      pz      :     0.743253  p :     2.114890
      px      :     0.722490
      py      :     0.649147
      dz2     :     0.049532  d :     0.270879
      dxz     :     0.034417
      dyz     :     0.057432
      dx2y2   :     0.072678
      dxy     :     0.056821
      f0      :     0.002636  f :     0.026860
      f+1     :     0.001342
      f-1     :     0.005412
      f+2     :     0.002341
      f-2     :     0.005536
      f+3     :     0.004437
      f-3     :     0.005157

 17 C s       :     3.051198  s :     3.051198
      pz      :     0.743544  p :     2.114241
      px      :     0.680073
      py      :     0.690623
      dz2     :     0.050119  d :     0.270984
      dxz     :     0.031634
      dyz     :     0.060402
      dx2y2   :     0.067214
      dxy     :     0.061616
      f0      :     0.002660  f :     0.026868
      f+1     :     0.003923
      f-1     :     0.002880
      f+2     :     0.004361
      f-2     :     0.003533
      f+3     :     0.004389
      f-3     :     0.005121

 18 C s       :     3.051040  s :     3.051040
      pz      :     0.742149  p :     2.114106
      px      :     0.670833
      py      :     0.701124
      dz2     :     0.049147  d :     0.270899
      dxz     :     0.069632
      dyz     :     0.022515
      dx2y2   :     0.056369
      dxy     :     0.073235
      f0      :     0.002628  f :     0.026866
      f+1     :     0.003953
      f-1     :     0.002820
      f+2     :     0.005555
      f-2     :     0.002325
      f+3     :     0.003602
      f-3     :     0.005984

 19 C s       :     3.050816  s :     3.050816
      pz      :     0.743722  p :     2.114902
      px      :     0.661054
      py      :     0.710125
      dz2     :     0.049271  d :     0.270822
      dxz     :     0.044819
      dyz     :     0.046825
      dx2y2   :     0.075039
      dxy     :     0.054869
      f0      :     0.002555  f :     0.026865
      f+1     :     0.004907
      f-1     :     0.001947
      f+2     :     0.002827
      f-2     :     0.005006
      f+3     :     0.003637
      f-3     :     0.005986

 20 C s       :     3.051092  s :     3.051092
      pz      :     0.743782  p :     2.114798
      px      :     0.654081
      py      :     0.716936
      dz2     :     0.049626  d :     0.270945
      dxz     :     0.071600
      dyz     :     0.020033
      dx2y2   :     0.054641
      dxy     :     0.075045
      f0      :     0.002572  f :     0.026868
      f+1     :     0.004996
      f-1     :     0.001846
      f+2     :     0.005028
      f-2     :     0.002813
      f+3     :     0.004484
      f-3     :     0.005130

 21 C s       :     3.278337  s :     3.278337
      pz      :     0.969940  p :     3.024900
      px      :     0.982538
      py      :     1.072421
      dz2     :     0.008000  d :     0.034986
      dxz     :     0.007567
      dyz     :     0.007083
      dx2y2   :     0.003723
      dxy     :     0.008613
      f0      :     0.000325  f :     0.003528
      f+1     :     0.000855
      f-1     :     0.000220
      f+2     :     0.000442
      f-2     :     0.001115
      f+3     :     0.000282
      f-3     :     0.000289

 22 H s       :     0.840363  s :     0.840363
      pz      :     0.005525  p :     0.022672
      px      :     0.005679
      py      :     0.011469

 23 H s       :     0.841392  s :     0.841392
      pz      :     0.009972  p :     0.023167
      px      :     0.006627
      py      :     0.006567

 24 H s       :     0.840765  s :     0.840765
      pz      :     0.005246  p :     0.022745
      px      :     0.009442
      py      :     0.008057

 25 C s       :     3.278141  s :     3.278141
      pz      :     0.971195  p :     3.024885
      px      :     1.050424
      py      :     1.003267
      dz2     :     0.008095  d :     0.035005
      dxz     :     0.008910
      dyz     :     0.005513
      dx2y2   :     0.008993
      dxy     :     0.003494
      f0      :     0.000316  f :     0.003527
      f+1     :     0.000514
      f-1     :     0.000581
      f+2     :     0.001115
      f-2     :     0.000409
      f+3     :     0.000302
      f-3     :     0.000290

 26 H s       :     0.840723  s :     0.840723
      pz      :     0.005245  p :     0.022740
      px      :     0.004906
      py      :     0.012588

 27 H s       :     0.840392  s :     0.840392
      pz      :     0.005451  p :     0.022669
      px      :     0.012602
      py      :     0.004616

 28 H s       :     0.841468  s :     0.841468
      pz      :     0.010097  p :     0.023173
      px      :     0.007792
      py      :     0.005284

 29 C s       :     3.278401  s :     3.278401
      pz      :     0.972005  p :     3.025070
      px      :     1.047792
      py      :     1.005274
      dz2     :     0.007942  d :     0.035007
      dxz     :     0.005310
      dyz     :     0.009278
      dx2y2   :     0.005963
      dxy     :     0.006513
      f0      :     0.000311  f :     0.003528
      f+1     :     0.000247
      f-1     :     0.000805
      f+2     :     0.000760
      f-2     :     0.000833
      f+3     :     0.000287
      f-3     :     0.000285

 30 H s       :     0.841327  s :     0.841327
      pz      :     0.010014  p :     0.023167
      px      :     0.005276
      py      :     0.007878

 31 H s       :     0.840656  s :     0.840656
      pz      :     0.005301  p :     0.022741
      px      :     0.011861
      py      :     0.005579

 32 H s       :     0.840359  s :     0.840359
      pz      :     0.005528  p :     0.022669
      px      :     0.007491
      py      :     0.009650

 33 C s       :     3.278731  s :     3.278731
      pz      :     0.971067  p :     3.024496
      px      :     1.029702
      py      :     1.023727
      dz2     :     0.008162  d :     0.034963
      dxz     :     0.009230
      dyz     :     0.005006
      dx2y2   :     0.009021
      dxy     :     0.003543
      f0      :     0.000330  f :     0.003528
      f+1     :     0.000704
      f-1     :     0.000435
      f+2     :     0.001076
      f-2     :     0.000375
      f+3     :     0.000061
      f-3     :     0.000547

 34 H s       :     0.840464  s :     0.840464
      pz      :     0.005171  p :     0.022722
      px      :     0.004627
      py      :     0.012923

 35 H s       :     0.840104  s :     0.840104
      pz      :     0.005415  p :     0.022663
      px      :     0.011749
      py      :     0.005498

 36 H s       :     0.841687  s :     0.841687
      pz      :     0.010170  p :     0.023196
      px      :     0.007952
      py      :     0.005073

 37 C s       :     3.278574  s :     3.278574
      pz      :     0.972876  p :     3.024500
      px      :     0.983959
      py      :     1.067666
      dz2     :     0.008131  d :     0.035002
      dxz     :     0.006513
      dyz     :     0.007656
      dx2y2   :     0.006232
      dxy     :     0.006470
      f0      :     0.000317  f :     0.003529
      f+1     :     0.000789
      f-1     :     0.000332
      f+2     :     0.000707
      f-2     :     0.000771
      f+3     :     0.000065
      f-3     :     0.000547

 38 H s       :     0.840201  s :     0.840201
      pz      :     0.005407  p :     0.022661
      px      :     0.004693
      py      :     0.012561

 39 H s       :     0.841633  s :     0.841633
      pz      :     0.010220  p :     0.023193
      px      :     0.005924
      py      :     0.007049

 40 H s       :     0.840455  s :     0.840455
      pz      :     0.005216  p :     0.022724
      px      :     0.011115
      py      :     0.006394

 41 C s       :     3.278540  s :     3.278540
      pz      :     0.971574  p :     3.024831
      px      :     1.065637
      py      :     0.987620
      dz2     :     0.008189  d :     0.035005
      dxz     :     0.005619
      dyz     :     0.008585
      dx2y2   :     0.003631
      dxy     :     0.008981
      f0      :     0.000321  f :     0.003529
      f+1     :     0.000197
      f-1     :     0.000940
[...]
      f-1     :     0.004095
      f+2     :     0.003970
      f-2     :     0.003825
      f+3     :     0.001334
      f-3     :     0.003069

 34 H s       :     0.797647  s :     0.797647
      pz      :     0.014273  p :     0.062141
      px      :     0.012977
      py      :     0.034891

 35 H s       :     0.802740  s :     0.802740
      pz      :     0.014108  p :     0.062054
      px      :     0.032309
      py      :     0.015637

 36 H s       :     0.792608  s :     0.792608
      pz      :     0.025788  p :     0.062196
      px      :     0.022743
      py      :     0.013665

 37 C s       :     2.840796  s :     2.840796
      pz      :     1.039841  p :     3.159225
      px      :     1.048465
      py      :     1.070919
      dz2     :     0.045100  d :     0.220156
      dxz     :     0.052232
      dyz     :     0.044901
      dx2y2   :     0.043114
      dxy     :     0.034810
      f0      :     0.003345  f :     0.023463
      f+1     :     0.004670
      f-1     :     0.003134
      f+2     :     0.003207
      f-2     :     0.004632
      f+3     :     0.001373
      f-3     :     0.003103

 38 H s       :     0.802797  s :     0.802797
      pz      :     0.014106  p :     0.062054
      px      :     0.012789
      py      :     0.035160

 39 H s       :     0.792634  s :     0.792634
      pz      :     0.025953  p :     0.062200
      px      :     0.016725
      py      :     0.019522

 40 H s       :     0.797587  s :     0.797587
      pz      :     0.014422  p :     0.062138
      px      :     0.029676
      py      :     0.018040

 41 C s       :     2.840772  s :     2.840772
      pz      :     1.039488  p :     3.159294
      px      :     1.068462
      py      :     1.051343
      dz2     :     0.045570  d :     0.220155
      dxz     :     0.034540
      dyz     :     0.062433
      dx2y2   :     0.017981
      dxy     :     0.059630
      f0      :     0.003337  f :     0.023466
      f+1     :     0.003280
      f-1     :     0.004588
      f+2     :     0.004529
      f-2     :     0.003290
      f+3     :     0.001327
      f-3     :     0.003115

 42 H s       :     0.792716  s :     0.792716
      pz      :     0.025906  p :     0.062207
      px      :     0.015037
      py      :     0.021263

 43 H s       :     0.797500  s :     0.797500
      pz      :     0.014335  p :     0.062149
      px      :     0.028815
      py      :     0.018998

 44 H s       :     0.802822  s :     0.802822
      pz      :     0.014051  p :     0.062053
      px      :     0.027074
      py      :     0.020927



                      *****************************
                      * MAYER POPULATION ANALYSIS *
                      *****************************

  NA   - Mulliken gross atomic population
  ZA   - Total nuclear charge
  QA   - Mulliken gross atomic charge
  VA   - Mayer's total valence
  BVA  - Mayer's bonded valence
  FA   - Mayer's free valence

  ATOM       NA         ZA         QA         VA         BVA        FA
  0 Pd    17.4437    18.0000     0.5563     2.3815     2.3815    -0.0000
  1 Pd    17.4433    18.0000     0.5567     2.3806     2.3806    -0.0000
  2 Pd    17.4432    18.0000     0.5568     2.3804     2.3804    -0.0000
  3 O      8.4453     8.0000    -0.4453     2.0193     2.0193    -0.0000
  4 O      8.4372     8.0000    -0.4372     2.0388     2.0388    -0.0000
  5 O      8.4368     8.0000    -0.4368     2.0370     2.0370    -0.0000
  6 O      8.4457     8.0000    -0.4457     2.0175     2.0175     0.0000
  7 O      8.4370     8.0000    -0.4370     2.0389     2.0389     0.0000
  8 O      8.4452     8.0000    -0.4452     2.0182     2.0182     0.0000
  9 O      8.4452     8.0000    -0.4452     2.0191     2.0191    -0.0000
 10 O      8.4370     8.0000    -0.4370     2.0378     2.0378    -0.0000
 11 O      8.4450     8.0000    -0.4450     2.0190     2.0190     0.0000
 12 O      8.4369     8.0000    -0.4369     2.0369     2.0369    -0.0000
 13 O      8.4453     8.0000    -0.4453     2.0176     2.0176    -0.0000
 14 O      8.4371     8.0000    -0.4371     2.0388     2.0388    -0.0000
 15 C      5.4628     6.0000     0.5372     3.9264     3.9264    -0.0000
 16 C      5.4635     6.0000     0.5365     3.9266     3.9266    -0.0000
 17 C      5.4633     6.0000     0.5367     3.9262     3.9262    -0.0000
 18 C      5.4629     6.0000     0.5371     3.9264     3.9264     0.0000
 19 C      5.4634     6.0000     0.5366     3.9273     3.9273     0.0000
 20 C      5.4637     6.0000     0.5363     3.9275     3.9275     0.0000
 21 C      6.3418     6.0000    -0.3418     3.8869     3.8869     0.0000
 22 H      0.8630     1.0000     0.1370     0.9784     0.9784     0.0000
 23 H      0.8646     1.0000     0.1354     0.9770     0.9770     0.0000
 24 H      0.8635     1.0000     0.1365     0.9786     0.9786     0.0000
 25 C      6.3416     6.0000    -0.3416     3.8872     3.8872    -0.0000
 26 H      0.8635     1.0000     0.1365     0.9786     0.9786    -0.0000
 27 H      0.8631     1.0000     0.1369     0.9784     0.9784     0.0000
 28 H      0.8646     1.0000     0.1354     0.9769     0.9769    -0.0000
 29 C      6.3420     6.0000    -0.3420     3.8871     3.8871     0.0000
 30 H      0.8645     1.0000     0.1355     0.9769     0.9769    -0.0000
 31 H      0.8634     1.0000     0.1366     0.9786     0.9786    -0.0000
 32 H      0.8630     1.0000     0.1370     0.9784     0.9784     0.0000
 33 C      6.3417     6.0000    -0.3417     3.8872     3.8872    -0.0000
 34 H      0.8632     1.0000     0.1368     0.9787     0.9787    -0.0000
 35 H      0.8628     1.0000     0.1372     0.9780     0.9780    -0.0000
 36 H      0.8649     1.0000     0.1351     0.9771     0.9771    -0.0000
 37 C      6.3416     6.0000    -0.3416     3.8872     3.8872     0.0000
 38 H      0.8629     1.0000     0.1371     0.9781     0.9781     0.0000
 39 H      0.8648     1.0000     0.1352     0.9770     0.9770     0.0000
 40 H      0.8632     1.0000     0.1368     0.9787     0.9787     0.0000
 41 C      6.3419     6.0000    -0.3419     3.8872     3.8872    -0.0000
 42 H      0.8647     1.0000     0.1353     0.9770     0.9770    -0.0000
 43 H      0.8632     1.0000     0.1368     0.9786     0.9786    -0.0000
 44 H      0.8629     1.0000     0.1371     0.9782     0.9782    -0.0000

  Mayer bond orders larger than 0.100000
B(  0-Pd,  1-Pd) :   0.1298 B(  0-Pd,  2-Pd) :   0.1302 B(  0-Pd,  3-O ) :   0.4471 
B(  0-Pd,  4-O ) :   0.4622 B(  0-Pd,  5-O ) :   0.4618 B(  0-Pd,  6-O ) :   0.4465 
B(  1-Pd,  2-Pd) :   0.1295 B(  1-Pd,  7-O ) :   0.4624 B(  1-Pd,  8-O ) :   0.4465 
B(  1-Pd,  9-O ) :   0.4471 B(  1-Pd, 10-O ) :   0.4616 B(  2-Pd, 11-O ) :   0.4469 
B(  2-Pd, 12-O ) :   0.4620 B(  2-Pd, 13-O ) :   0.4466 B(  2-Pd, 14-O ) :   0.4620 
B(  3-O , 17-C ) :   1.4405 B(  4-O , 18-C ) :   1.4515 B(  5-O , 16-C ) :   1.4509 
B(  6-O , 15-C ) :   1.4399 B(  7-O , 15-C ) :   1.4517 B(  8-O , 19-C ) :   1.4406 
B(  9-O , 16-C ) :   1.4405 B( 10-O , 20-C ) :   1.4514 B( 11-O , 20-C ) :   1.4407 
B( 12-O , 17-C ) :   1.4506 B( 13-O , 18-C ) :   1.4400 B( 14-O , 19-C ) :   1.4516 
B( 15-C , 21-C ) :   0.9726 B( 16-C , 37-C ) :   0.9730 B( 17-C , 33-C ) :   0.9731 
B( 18-C , 29-C ) :   0.9727 B( 19-C , 25-C ) :   0.9728 B( 20-C , 41-C ) :   0.9730 
B( 21-C , 22-H ) :   0.9777 B( 21-C , 23-H ) :   0.9472 B( 21-C , 24-H ) :   0.9617 
B( 25-C , 26-H ) :   0.9618 B( 25-C , 27-H ) :   0.9776 B( 25-C , 28-H ) :   0.9472 
B( 29-C , 30-H ) :   0.9473 B( 29-C , 31-H ) :   0.9617 B( 29-C , 32-H ) :   0.9776 
B( 33-C , 34-H ) :   0.9634 B( 33-C , 35-H ) :   0.9769 B( 33-C , 36-H ) :   0.9462 
B( 37-C , 38-H ) :   0.9769 B( 37-C , 39-H ) :   0.9464 B( 37-C , 40-H ) :   0.9632 
B( 41-C , 42-H ) :   0.9466 B( 41-C , 43-H ) :   0.9627 B( 41-C , 44-H ) :   0.9772 


-------
TIMINGS
-------

Total SCF time: 0 days 0 hours 5 min 37 sec 

Total time                  ....     337.804 sec
Sum of individual times     ....     334.076 sec  ( 98.9%)

SCF preparation             ....       1.824 sec  (  0.5%)
Fock matrix formation       ....     263.695 sec  ( 78.1%)
  Startup                   ....       7.057 sec  (  2.7% of F)
  Split-RI-J                ....      45.444 sec  ( 17.2% of F)
  Chain of spheres X        ....     144.446 sec  ( 54.8% of F)
  XC integration            ....      55.298 sec  ( 21.0% of F)
    XC Preparation          ....       0.000 sec  (  0.0% of XC)
    Basis function eval.    ....       6.800 sec  ( 12.3% of XC)
    Density eval.           ....      17.871 sec  ( 32.3% of XC)
    XC-Functional eval.     ....       1.520 sec  (  2.7% of XC)
    XC-Potential eval.      ....      13.750 sec  ( 24.9% of XC)
Diagonalization             ....       0.000 sec  (  0.0%)
Density matrix formation    ....      13.898 sec  (  4.1%)
Total Energy calculation    ....       5.151 sec  (  1.5%)
Population analysis         ....       1.808 sec  (  0.5%)
Orbital Transformation      ....       2.286 sec  (  0.7%)
Orbital Orthonormalization  ....       0.000 sec  (  0.0%)
DIIS solution               ....      39.840 sec  ( 11.8%)
SOSCF solution              ....       5.575 sec  (  1.7%)
Finished LeanSCF after 338.3 sec

Maximum memory used throughout the entire LEANSCF-calculation: 152.3 MB


-------------------------------------------------------------------------------
                          DFT DISPERSION CORRECTION                            
                                                                               
                              DFTD3 V3.1  Rev 1                                
                          USING Becke-Johnson damping                          
-------------------------------------------------------------------------------
The R2SCANh functional is recognized
Active option DFTDOPT                   ...         4   

molecular C6(AA) [au] = 30115.323007 


            DFT-D V3
 parameters
 s6 scaling factor         :     1.0000 
 a1 scaling factor         :     0.4709 
 s8 scaling factor         :     1.1236 
 a2 scaling factor         :     5.9157 
 ad hoc parameters k1-k3   :    16.0000     1.3333    -4.0000 

 Edisp/kcal,au: -15.287887194203  -0.024362796412 
 E6   /kcal   : -10.336675105 
 E8   /kcal   :  -4.951212089 
 % E8         :  32.386503289 

-------------------------   ----------------
Dispersion correction           -0.024362796
-------------------------   ----------------


-------------------------   --------------------
FINAL SINGLE POINT ENERGY     -1754.784301517117
-------------------------   --------------------



           ************************************************************
           *        Program running with 16 parallel MPI-processes    *
           *              working on a common directory               *
           ************************************************************

------------------------------------------------------------------------------
                              ORCA PROPERTY CALCULATIONS
------------------------------------------------------------------------------

GBWName                                 ... CS_PdOAc_001_sp_02.gbw
Number of atoms                         ...     45
Number of basis functions               ...    972
Max core memory                         ...   3500 MB

Electric properties:
Dipole moment                           ... YES
Quadrupole moment                       ...  NO
Static polarizability (Dipole/Dipole)   ...  NO
Static polarizability (Dipole/Quad.)    ...  NO
Static polarizability (Quad./Quad.)     ...  NO
Static polarizability (Velocity)        ...  NO

Atomic electric properties:
Dipole moment                           ...  NO
Quadrupole moment                       ...  NO
Static polarizability                   ...  NO

Choice of electric origin               ... Center of mass
Position of electric origin             ...    -0.001678     0.001913    -0.001887

General magnetic properties:
Magnetizability                         ...  NO

EPR properties:
g-Tensor (aka g-matrix)                 ...  NO
Zero-Field splitting spin-orbit         ...  NO
Zero-field splitting spin-spin          ...  NO
Hyperfine couplings                     ...  NO (   0 nuclei)
Quadrupole couplings                    ...  NO (   0 nuclei)
Contact density                         ...  NO (   0 nuclei)

NMR properties:
Chemical shifts                         ...  NO (   0 nuclei)
Spin-rotation constants                 ...  NO (   0 nuclei)
Spin-spin couplings                     ...  NO (   0 nuclei,    0 pairs)

Choice of magnetic origin               ... GIAO
Position of magnetic origin             ...     0.000000     0.000000     0.000000

Properties with geometric perturbations:
SCF Hessian                             ...  NO
IR spectrum                             ...  NO
VCD spectrum                            ...  NO
X-ray spectroscopy properties:
SCF XES/XAS/RIXS spectra                ...  NO


-------------
DIPOLE MOMENT
-------------

Method             : SCF
Type of density    : Electron Density
Multiplicity       :   1
Irrep              :   0
Energy             : -1754.7599387207044401 Eh
Relativity type    : 
Basis              : AO
                                X                 Y                 Z
Electronic contribution:     -0.000249455       0.071583286      -0.149353699
Nuclear contribution   :      0.000385917      -0.073192196       0.155278721
                        -----------------------------------------
Total Dipole Moment    :      0.000136463      -0.001608910       0.005925022
                        -----------------------------------------
Magnitude (a.u.)       :      0.006141099
Magnitude (Debye)      :      0.015609433



--------------------
Rotational spectrum 
--------------------
 
Rotational constants in cm-1:             0.004875             0.004873             0.004319 
Rotational constants in MHz :           146.162820           146.086298           129.494342 

Dipole components along the rotational axes: 
x,y,z [a.u.] :    -0.001332    -0.000937     0.005921 
x,y,z [Debye]:    -0.003384    -0.002383     0.015051 

 

Dipole moment calculation done in   0.3 sec 

Maximum memory used throughout the entire PROP-calculation: 85.1 MB

--------------------------------
SUGGESTED CITATIONS FOR THIS RUN
--------------------------------

Below you find a list of papers that are relevant to this ORCA run
We neither can nor want to force you to cite these papers, but we appreciate if you do
You receive ORCA, which is the product of decades of hard work by many enthusiastic individuals, for free
The only thing we kindly ask in return is that you cite our papers,
We deeply appreciate it, if you show your appreciation for ORCA by not just citing the generic ORCA reference.

Please note that relegating all ORCA citations to the supporting information does *not* help us.
SI sections are not indexed - citations you put there will not count into any citation statistics
But we need these citations in order to attract the funding resources that allow us to do what we are doing

Therefore, if you are a happy ORCA user, please consider citing a few of the papers listed below in the main body of your paper

In addition to the list printed below, the program has created the file CS_PdOAc_001_sp_02.bibtex that contains the list in bibtex format
You can import this file easily into all common literature databanks and citation aid programs


List of essential papers. We consider these as the minimum necessary citations

  1. Neese,F.
     Software update: the ORCA program system, version 5.0
     WIRES Comput. Molec. Sci., 2022 12(1)e1606
     doi.org/10.1002/wcms.1606

List of papers to cite with high priority. The work reported in these papers was absolutely
necessary for this run to complete.
Our perspective: the developers of density functionals and basis sets usually get cited in chemistry papers
Good! But without the algorithms to do something with them, the functionals or basis sets would not do anything.
Hence, in our opinion, the algorithm design and method developments papers are equally worthy of getting cited

  1. Neese,F.
     An improvement of the resolution of the identity approximation for the formation of the Coulomb matrix
     J. Comp. Chem., 2003 24(14)1740-1747
     doi.org/10.1002/jcc.10318
  2. Neese,F.; Wennmohs,F.; Hansen,A.; Becker,U.
     Efficient, approximate and parallel Hartree-Fock and hybrid DFT calculations. A 'chain-of-spheres' algorithm for the Hartree-Fock exchange
     Chem. Phys., 2009 356(1-3)98-109
     doi.org/10.1016/j.chemphys.2008.10.036
  3. Helmich-Paris,B.; de Souza,B.; Neese,F.; Izsák,R.
     An improved chain of spheres for exchange algorithm
     J. Chem. Phys., 2021 155 104109
     doi.org/doi: 10.1063/5.0058766.
  4. Neese,F.
     The SHARK Integral Generation and Digestion System
     J. Comp. Chem., 2022  1-16
     doi.org/10.1002/jcc.26942
  5. Lehtola,S.; Steigemann,C.; Oliveira,M.; Marques,M.
     Recent developments in Libxc - A comprehensive library of functionals for density functional theory
     Software X, 2018 7 
     doi.org/10.1016/j.softx.2017.11.002
  6. Grimme,S.; Antony,J.; Ehrlich,S.; Krieg,H.
     A consistent and accurate ab initio parametrization of density functional dispersion correction (DFT-D) for the 94 elements H-Pu
     J. Chem. Phys., 2010 132 154104-XXXX
     doi.org/10.1063/1.3382344
  7. Grimme,S.; Ehrlich,S.; Goerigk,L.
     Effect of the damping function in dispersion corrected density functional theory
     J. Comput. Chem., 2011 32(7)1456-1465
     doi.org/10.1002/jcc.21759
  8. Bursch,M.; Neugebauer,H.; Ehlert,S.; Grimme,S.
     Dispersion corrected r2SCAN based global hybrid functionals: r2SCANh, r2SCAN0, and r2SCAN50
     J. Phys. Chem., 2022 156(13)134105
     doi.org/10.1063/5.0086040

List of suggested additional citations. These are papers that are important in the 'surrounding' of 
of this run, or papers that preceded the highly important papers. If you like your results we are grateful for a citation.

  1. Izsak,R.; Neese,F.
     An overlap fitted chain of spheres exchange method
     J. Chem. Phys., 2011 135 144105
     doi.org/10.1063/1.3646921
  2. Izsak,R.; Hansen,A.; Neese,F.
     The resolution of identity and chain of spheres approximations for the LPNO-CCSD singles Fock term
     Molec. Phys., 2012 110 2413-2417
     doi.org/10.1080/00268976.2012.687466
  3. Neese,F.
     The ORCA program system
     WIRES Comput. Molec. Sci., 2012 2(1)73-78
     doi.org/10.1002/wcms.81
  4. Izsak,R.; Neese,F.; Klopper,W.
     Robust fitting techniques in the chain of spheres approximation to the Fock exchange: The role of the complementary space
     J. Chem. Phys., 2013 139 
     doi.org/10.1063/1.4819264
  5. Neese,F.
     Software update: the ORCA program system, version 4.0
     WIRES Comput. Molec. Sci., 2018 8(1)1-6
     doi.org/10.1002/wcms.1327
  6. Neese,F.; Wennmohs,F.; Becker,U.; Riplinger,C.
     The ORCA quantum chemistry program package
     J. Chem. Phys., 2020 152 Art. No. L224108
     doi.org/10.1063/5.0004608
  7. Wittmann,L.; Neugebauer,H.; Grimme,S.; Bursch,M.
     Dispersion-corrected r2SCAN based double-hybrid functionals
     J. Chem. Phys., 2023 159(22)224103
     doi.org/10.1063/5.0174988

List of optional additional citations

  1. Neese,F.
     Approximate second-order SCF convergence for spin unrestricted wavefunctions
     Chem. Phys. Lett., 2000 325(1-3)93-98
     doi.org/10.1016/s0009-2614(00)00662-x

Timings for individual modules:

Sum of individual times          ...      376.399 sec (=   6.273 min)
Startup calculation              ...       14.217 sec (=   0.237 min)   3.8 %
SCF iterations                   ...      359.535 sec (=   5.992 min)  95.5 %
Property calculations            ...        2.647 sec (=   0.044 min)   0.7 %
                             ****ORCA TERMINATED NORMALLY****
TOTAL RUN TIME: 0 days 0 hours 6 minutes 19 seconds 708 msec
