
                                 *****************
                                 * O   R   C   A *
                                 *****************

                                            #,                                       
                                            ###                                      
                                            ####                                     
                                            #####                                    
                                            ######                                   
                                           ########,                                 
                                     ,,################,,,,,                         
                               ,,#################################,,                 
                          ,,##########################################,,             
                       ,#########################################, ''#####,          
                    ,#############################################,,   '####,        
                  ,##################################################,,,,####,       
                ,###########''''           ''''###############################       
              ,#####''   ,,,,##########,,,,          '''####'''          '####       
            ,##' ,,,,###########################,,,                        '##       
           ' ,,###''''                  '''############,,,                           
         ,,##''                                '''############,,,,        ,,,,,,###''
      ,#''                                            '''#######################'''  
     '                                                          ''''####''''         
             ,#######,   #######,   ,#######,      ##                                
            ,#'     '#,  ##    ##  ,#'     '#,    #''#        ,####,   ,####,        
            ##       ##  ##   ,#'  ##            #'  '#       #'       #'  '#        
            ##       ##  #######   ##           ,######,      #####,   #    #        
            '#,     ,#'  ##    ##  '#,     ,#' ,#      #,     #,   #   #,  ,#        
             '#######'   ##     ##  '#######'  #'      '#     '####' # '####'        



                #########################################################
                #                        -***-                          #
                #          Department of theory and spectroscopy        #
                #                                                       #
                #                      Frank Neese                      #
                #                                                       #
                #     Directorship, Architecture, Infrastructure        #
                #                    SHARK, DRIVERS                     #
                #        Core code/Algorithms in most modules           #
                #                                                       #
                #        Max Planck Institute fuer Kohlenforschung      #
                #                Kaiser Wilhelm Platz 1                 #
                #                 D-45470 Muelheim/Ruhr                 #
                #                      Germany                          #
                #                                                       #
                #                  All rights reserved                  #
                #                        -***-                          #
                #########################################################


                         Program Version 6.0.0  -   RELEASE  -


 With contributions from (in alphabetic order):
   Daniel Aravena         : Magnetic Suceptibility
   Michael Atanasov       : Ab Initio Ligand Field Theory (pilot matlab implementation)
   Alexander A. Auer      : GIAO ZORA, VPT2 properties, NMR spectrum
   Ute Becker             : All parallelization in ORCA, NUMFREQ, NUMCALC
   Giovanni Bistoni       : ED, misc. LED, open-shell LED, HFLD
   Martin Brehm           : Molecular dynamics
   Dmytro Bykov           : pre 5.0 version of the SCF Hessian
   Marcos Casanova-Páez   : Triplet and SCS-CIS(D). UHF-(DLPNO)-IP/EA/STEOM-CCSD. UHF-CVS-IP/STEOM-CCSD
   Vijay G. Chilkuri      : MRCI spin determinant printing, contributions to CSF-ICE
   Pauline Colinet        : FMM embedding
   Dipayan Datta          : RHF DLPNO-CCSD density
   Achintya Kumar Dutta   : EOM-CC, STEOM-CC
   Nicolas Foglia         : Exact transition moments, OPA infrastructure, MCD improvements
   Dmitry Ganyushin       : Spin-Orbit,Spin-Spin,Magnetic field MRCI
   Miquel Garcia          : C-PCM and meta-GGA Hessian, CCSD/C-PCM, Gaussian charge scheme
   Tiago L. C. Gouveia    : GS-ROHF, GS-ROCIS
   Yang Guo               : DLPNO-NEVPT2, F12-NEVPT2, CIM, IAO-localization
   Andreas Hansen         : Spin unrestricted coupled pair/coupled cluster methods
   Ingolf Harden          : AUTO-CI MPn and infrastructure 
   Benjamin Helmich-Paris : MC-RPA, TRAH-(SCF,CASSCF), AVAS, COSX integrals, SCF dyn. polar.
   Lee Huntington         : MR-EOM, pCC
   Robert Izsak           : Overlap fitted RIJCOSX, COSX-SCS-MP3, EOM
   Riya Kayal             : Wick's Theorem for AUTO-CI, AUTO-CI UHF-CCSDT
   Emily Kempfer          : AUTO-CI, RHF CISDT and CCSDT
   Christian Kollmar      : KDIIS, OOCD, Brueckner-CCSD(T), CCSD density, CASPT2, CASPT2-K, improved NEVPT2
   Axel Koslowski         : Symmetry handling
   Simone Kossmann        : Meta GGA functionals, TD-DFT gradient, OOMP2, (MP2 Hessian; deprecated post 5.0)
   Lucas Lang             : DCDCAS
   Marvin Lechner         : AUTO-CI (C++ implementation), FIC-MRCC
   Spencer Leger          : CASSCF response
   Dagmar Lenk            : GEPOL surface, SMD, ORCA-2-JSON
   Dimitrios Liakos       : Extrapolation schemes; Compound Job, initial MDCI parallelization
   Dimitrios Manganas     : Further ROCIS development; embedding schemes. LFT, Crystal Embedding
   Dimitrios Pantazis     : SARC Basis sets
   Anastasios Papadopoulos: AUTO-CI, single reference methods and gradients
   Taras Petrenko         : pre 6.0 DFT Hessian and TD-DFT gradient, (ASA, deprecated), ECA, 1-Electron XAS/XES, NRVS
   Peter Pinski           : DLPNO-MP2, DLPNO-MP2 Gradient
   Christoph Reimann      : Effective Core Potentials
   Marius Retegan         : Local ZFS, SOC
   Christoph Riplinger    : Optimizer, TS searches, QM/MM, DLPNO-CCSD(T), (RO)-DLPNO pert. Triples
   Michael Roemelt        : Original ROCIS implementation
   Masaaki Saitow         : Open-shell DLPNO-CCSD energy and density
   Barbara Sandhoefer     : DKH picture change effects
   Kantharuban Sivalingam : CASSCF convergence/infrastructure, NEVPT2 and variants, FIC-MRCI
   Bernardo de Souza      : ESD, SOC TD-DFT
   Georgi Stoychev        : AutoAux, RI-MP2 NMR, DLPNO-MP2 response, X2C
   Van Anh Tran           : RI-MP2 g-tensors
   Willem Van den Heuvel  : Paramagnetic NMR
   Zikuan Wang            : NOTCH, Electric field optimization 
   Frank Wennmohs         : Technical directorship and infrastructure
   Hang Xu                : AUTO-CI-Response properties 


 We gratefully acknowledge several colleagues who have allowed us to
 interface, adapt or use parts of their codes:
   Stefan Grimme, W. Hujo, H. Kruse, P. Pracht,  : VdW corrections, initial TS optimization,
                  C. Bannwarth, S. Ehlert,         DFT functionals, gCP, sTDA/sTD-DF
                  L. Wittmann, M. Mueller
   Ed Valeev, F. Pavosevic, A. Kumar             : LibInt (2-el integral package), F12 methods
   Garnet Chan, S. Sharma, J. Yang, R. Olivares  : DMRG
   Ulf Ekstrom                                   : XCFun DFT Library
   Mihaly Kallay                                 : mrcc  (arbitrary order and MRCC methods)
   Frank Weinhold                                : gennbo (NPA and NBO analysis)
   Simon Mueller                                 : openCOSMO-RS
   Christopher J. Cramer and Donald G. Truhlar   : smd solvation model
   Lars Goerigk                                  : TD-DFT with DH, B97 family of functionals
   V. Asgeirsson, H. Jonsson                     : NEB implementation
   FAccTs GmbH                                   : IRC, NEB, NEB-TS, DLPNO-Multilevel, CI-OPT
                                                   MM, QMMM, 2- and 3-layer-ONIOM, Crystal-QMMM,
                                                   LR-CPCM, SF, NACMEs, symmetry and pop. for TD-DFT,
                                                   nearIR, NL-DFT gradient (VV10), updates on ESD,
                                                   ML-optimized integration grids, MBIS, APM,
                                                   GOAT, DOCKER, SOLVATOR, interface openCOSMO-RS
   S Lehtola, MJT Oliveira, MAL Marques          : LibXC Library
   Liviu Ungur et al                             : ANISO software


 Your calculation uses the libint2 library for the computation of 2-el integrals
 For citations please refer to: http://libint.valeyev.net

 Your ORCA version has been built with support for libXC version: 6.2.2
 For citations please refer to: https://libxc.gitlab.io

 This ORCA versions uses:
   CBLAS   interface :  Fast vector & matrix operations
   LAPACKE interface :  Fast linear algebra routines
   SCALAPACK package :  Parallel linear algebra routines
   Shared memory     :  Shared parallel matrices
   BLAS/LAPACK       :  OpenBLAS 0.3.27  USE64BITINT DYNAMIC_ARCH NO_AFFINITY Sandybridge SINGLE_THREADED
        Core in use  :  Sandybridge
   Copyright (c) 2011-2014, The OpenBLAS Project


NOTE: MaxCore=3500 MB was set to SCF,MP2,MDCI,CIPSI,MRCI and CIS
      => If you want to overwrite this, your respective input block should be placed after the MaxCore statement
Your calculation utilizes the atom-pairwise dispersion correction
with the Becke-Johnson damping scheme (D3BJ)


Warning: RI is on but no J-basis has been assigned. Assigning Def2/J (nothing to worry about!)
================================================================================

----- Orbital basis set information -----
Your calculation utilizes the basis: def2-SV(P)
   F. Weigend and R. Ahlrichs, Phys. Chem. Chem. Phys. 7, 3297 (2005).

----- AuxJ basis set information -----
Your calculation utilizes the auxiliary basis: def2/J
   F. Weigend, Phys. Chem. Chem. Phys. 8, 1057 (2006).

================================================================================
                                        WARNINGS
                       Please study these warnings very carefully!
================================================================================


WARNING: Geometry Optimization
  ===> : Switching off AutoStart
         For restart on a previous wavefunction, please use MOREAD

================================================================================
                                       INPUT FILE
================================================================================
NAME = CS_PdOAc_010_opt_01.inp
|  1> !PBE0 def2-SV(p) opt d3 TightSCF SlowConv RIJCOSX defgrid2
|  2> 
|  3> %pal
|  4> nprocs 4
|  5> end
|  6> 
|  7> %scf
|  8> MaxIter 1500
|  9> end
| 10> 
| 11> %maxcore 3500
| 12> 
| 13>  
| 14> 
| 15> * xyz 0 1
| 16> 8        0.000000000      0.000000000      0.000000000
| 17> 6       -1.042391175     -0.656545625      0.240917043
| 18> 8       -2.216884938     -0.345836796     -0.075767283
| 19> 6       -0.855567434     -1.967150393      0.960293499
| 20> 1       -0.499195398     -2.700304659      0.235369496
| 21> 1       -0.097796648     -1.860360876      1.732703068
| 22> 1       -1.796172353     -2.309959965      1.380511457
| 23> 6        0.074275287      0.734631279     -1.236284783
| 24> 1       -0.893664171      0.993852722     -1.664429056
| 25> 6        0.970601530      1.246060022     -2.088475436
| 26> 1        2.042625257      1.157530897     -1.940314547
| 27> 1        0.651405687      1.779306205     -2.977679677
| 28> *
| 29> 
| 30>                          ****END OF INPUT****
================================================================================

                       *****************************
                       * Geometry Optimization Run *
                       *****************************

Geometry optimization settings:
Update method            Update   .... BFGS
Choice of coordinates    CoordSys .... (2022) Redundant Internals
Initial Hessian          InHess   .... Almloef's Model
Max. no of cycles        MaxIter  .... 50

Convergence Tolerances:
Energy Change            TolE     ....  5.0000e-06 Eh
Max. Gradient            TolMAXG  ....  3.0000e-04 Eh/bohr
RMS Gradient             TolRMSG  ....  1.0000e-04 Eh/bohr
Max. Displacement        TolMAXD  ....  4.0000e-03 bohr
RMS Displacement         TolRMSD  ....  2.0000e-03 bohr
Strict Convergence                .... False

------------------------------------------------------------------------------
                        ORCA OPTIMIZATION COORDINATE SETUP
------------------------------------------------------------------------------

The optimization will be done in redundant internal coordinates (2022)
Making redundant internal coordinates   ...  (2022 redundants) done
Evaluating the initial hessian          ...  (Almloef) done
Evaluating the coordinates              ...  done
Calculating the B-matrix                .... done
Calculating the G-matrix                .... done
Diagonalizing the G-matrix              .... done
The first mode is                       ....   10
The number of degrees of freedom        ....   30

    -----------------------------------------------------------------
                    Redundant Internal Coordinates


    -----------------------------------------------------------------
         Definition                    Initial Value    Approx d2E/dq
    -----------------------------------------------------------------
      1. B(C   1,O   0)                  1.2553         0.918011   
      2. B(O   2,C   1)                  1.2555         0.917216   
      3. B(C   3,C   1)                  1.5067         0.406986   
      4. B(H   4,C   3)                  1.0909         0.358931   
      5. B(H   5,C   3)                  1.0873         0.363680   
      6. B(H   6,C   3)                  1.0857         0.365775   
      7. B(C   7,O   0)                  1.4400         0.465697   
      8. B(H   8,C   7)                  1.0897         0.360519   
      9. B(C   9,C   7)                  1.3384         0.755332   
     10. B(H  10,C   9)                  1.0858         0.365661   
     11. B(H  11,C   9)                  1.0849         0.366964   
     12. A(C   1,O   0,C   7)          118.3229         0.436676   
     13. A(O   2,C   1,C   3)          116.8530         0.428963   
     14. A(O   0,C   1,C   3)          116.3361         0.429030   
     15. A(O   0,C   1,O   2)          126.7977         0.494323   
     16. A(H   4,C   3,H   5)          108.0838         0.291143   
     17. A(C   1,C   3,H   6)          110.6108         0.329776   
     18. A(C   1,C   3,H   5)          109.8868         0.329464   
     19. A(H   5,C   3,H   6)          111.0897         0.292009   
     20. A(H   4,C   3,H   6)          109.1479         0.291406   
     21. A(C   1,C   3,H   4)          107.9287         0.328749   
     22. A(H   8,C   7,C   9)          104.7032         0.365043   
     23. A(O   0,C   7,C   9)          140.9103         0.424421   
     24. A(O   0,C   7,H   8)          114.3850         0.334386   
     25. A(C   7,C   9,H  11)          120.8431         0.366152   
     26. A(C   7,C   9,H  10)          122.8996         0.365929   
     27. A(H  10,C   9,H  11)          116.2573         0.292408   
     28. D(C   3,C   1,O   0,C   7)    143.8221         0.067319   
     29. D(O   2,C   1,O   0,C   7)    -34.8115         0.067319   
     30. D(H   5,C   3,C   1,O   2)   -141.1295         0.012275   
     31. D(H   5,C   3,C   1,O   0)     40.0969         0.012275   
     32. D(H   4,C   3,C   1,O   2)    101.2265         0.012275   
     33. D(H   6,C   3,C   1,O   0)    163.1120         0.012275   
     34. D(H   4,C   3,C   1,O   0)    -77.5471         0.012275   
     35. D(C   9,C   7,O   0,C   1)   -156.7525         0.015551   
     36. D(H   8,C   7,O   0,C   1)     23.7800         0.015551   
     37. D(H  11,C   9,C   7,H   8)     -0.1270         0.040743   
     38. D(H  11,C   9,C   7,O   0)   -179.6256         0.040743   
     39. D(H  10,C   9,C   7,H   8)    179.8730         0.040743   
     40. D(H  10,C   9,C   7,O   0)      0.3744         0.040743   
    -----------------------------------------------------------------

Number of atoms                         .... 12
Number of degrees of freedom            .... 40


         *************************************************************
         *                GEOMETRY OPTIMIZATION CYCLE   1            *
         *************************************************************
---------------------------------
CARTESIAN COORDINATES (ANGSTROEM)
---------------------------------
  O      0.000000    0.000000    0.000000
  C     -1.042391   -0.656546    0.240917
  O     -2.216885   -0.345837   -0.075767
  C     -0.855567   -1.967150    0.960293
  H     -0.499195   -2.700305    0.235369
  H     -0.097797   -1.860361    1.732703
  H     -1.796172   -2.309960    1.380511
  C      0.074275    0.734631   -1.236285
  H     -0.893664    0.993853   -1.664429
  C      0.970602    1.246060   -2.088475
  H      2.042625    1.157531   -1.940315
  H      0.651406    1.779306   -2.977680

----------------------------
CARTESIAN COORDINATES (A.U.)
----------------------------
  NO LB      ZA    FRAG     MASS         X           Y           Z
   0 O     8.0000    0    15.999    0.000000    0.000000    0.000000
   1 C     6.0000    0    12.011   -1.969834   -1.240691    0.455267
   2 O     8.0000    0    15.999   -4.189305   -0.653537   -0.143179
   3 C     6.0000    0    12.011   -1.616788   -3.717376    1.814692
   4 H     1.0000    0     1.008   -0.943343   -5.102836    0.444784
   5 H     1.0000    0     1.008   -0.184809   -3.515573    3.274334
   6 H     1.0000    0     1.008   -3.394274   -4.365192    2.608789
   7 C     6.0000    0    12.011    0.140360    1.388252   -2.336240
   8 H     1.0000    0     1.008   -1.688781    1.878109   -3.145315
   9 C     6.0000    0    12.011    1.834171    2.354712   -3.946647
  10 H     1.0000    0     1.008    3.860002    2.187416   -3.666663
  11 H     1.0000    0     1.008    1.230978    3.362401   -5.626999

--------------------------------
INTERNAL COORDINATES (ANGSTROEM)
--------------------------------
 O      0   0   0     0.000000000000     0.00000000     0.00000000
 C      1   0   0     1.255257957964     0.00000000     0.00000000
 O      2   1   0     1.255493742748   126.79774943     0.00000000
 C      2   1   3     1.506681935099   116.33613746   178.63356037
 H      4   2   1     1.090885427496   107.92873338   282.45291213
 H      4   2   1     1.087307273653   109.88680645    40.09694638
 H      4   2   1     1.085743592441   110.61078203   163.11196660
 C      1   2   3     1.439999999660   118.32292093   325.18850274
 H      8   1   2     1.089683472100   114.38500645    23.78004053
 C      8   1   2     1.338353093215   140.91028033   203.24751992
 H     10   8   1     1.085828681816   122.89963280     0.37441222
 H     10   8   1     1.084860203015   120.84305704   180.37441213

---------------------------
INTERNAL COORDINATES (A.U.)
---------------------------
 O      0   0   0     0.000000000000     0.00000000     0.00000000
 C      1   0   0     2.372093767978     0.00000000     0.00000000
 O      2   1   0     2.372539336645   126.79774943     0.00000000
 C      2   1   3     2.847216228263   116.33613746   178.63356037
 H      4   2   1     2.061474701452   107.92873338   282.45291213
 H      4   2   1     2.054712970625   109.88680645    40.09694638
 H      4   2   1     2.051758041374   110.61078203   163.11196660
 C      1   2   3     2.721205632205   118.32292093   325.18850274
 H      8   1   2     2.059203334929   114.38500645    23.78004053
 C      8   1   2     2.529120816662   140.91028033   203.24751992
 H     10   8   1     2.051918836988   122.89963280     0.37441222
 H     10   8   1     2.050088677288   120.84305704   180.37441213

---------------------
BASIS SET INFORMATION
---------------------
There are 3 groups of distinct atoms

 Group   1 Type O   : 7s4p1d contracted to 3s2p1d pattern {511/31/1}
 Group   2 Type C   : 7s4p1d contracted to 3s2p1d pattern {511/31/1}
 Group   3 Type H   : 4s contracted to 2s pattern {31}

Atom   0O    basis set group =>   1
Atom   1C    basis set group =>   2
Atom   2O    basis set group =>   1
Atom   3C    basis set group =>   2
Atom   4H    basis set group =>   3
Atom   5H    basis set group =>   3
Atom   6H    basis set group =>   3
Atom   7C    basis set group =>   2
Atom   8H    basis set group =>   3
Atom   9C    basis set group =>   2
Atom  10H    basis set group =>   3
Atom  11H    basis set group =>   3
---------------------------------
AUXILIARY/J BASIS SET INFORMATION
---------------------------------
There are 3 groups of distinct atoms

 Group   1 Type O   : 12s5p4d2f1g contracted to 6s4p3d1f1g pattern {711111/2111/211/2/1}
 Group   2 Type C   : 12s5p4d2f1g contracted to 6s4p3d1f1g pattern {711111/2111/211/2/1}
 Group   3 Type H   : 5s2p1d contracted to 3s1p1d pattern {311/2/1}

Atom   0O    basis set group =>   1
Atom   1C    basis set group =>   2
Atom   2O    basis set group =>   1
Atom   3C    basis set group =>   2
Atom   4H    basis set group =>   3
Atom   5H    basis set group =>   3
Atom   6H    basis set group =>   3
Atom   7C    basis set group =>   2
Atom   8H    basis set group =>   3
Atom   9C    basis set group =>   2
Atom  10H    basis set group =>   3
Atom  11H    basis set group =>   3


           ************************************************************
           *        Program running with 4 parallel MPI-processes     *
           *              working on a common directory               *
           ************************************************************
------------------------------------------------------------------------------
                             ORCA STARTUP CALCULATIONS
                           -- RI-GTO INTEGRALS CHOSEN --
------------------------------------------------------------------------------
------------------------------------------------------------------------------
                   ___                                                        
                  /   \      - P O W E R E D   B Y -                         
                 /     \                                                     
                 |  |  |   _    _      __       _____    __    __             
                 |  |  |  | |  | |    /  \     |  _  \  |  |  /  |          
                  \  \/   | |  | |   /    \    | | | |  |  | /  /          
                 / \  \   | |__| |  /  /\  \   | |_| |  |  |/  /          
                |  |  |   |  __  | /  /__\  \  |    /   |      \           
                |  |  |   | |  | | |   __   |  |    \   |  |\   \          
                \     /   | |  | | |  |  |  |  | |\  \  |  | \   \       
                 \___/    |_|  |_| |__|  |__|  |_| \__\ |__|  \__/        
                                                                              
                      - O R C A' S   B I G   F R I E N D -                    
                                      &                                       
                       - I N T E G R A L  F E E D E R -                       
                                                                              
 v1 FN, 2020, v2 2021, v3 2022-2024                                           
------------------------------------------------------------------------------


----------------------
SHARK INTEGRAL PACKAGE
----------------------

Number of atoms                             ...     12
Number of basis functions                   ...     96
Number of shells                            ...     48
Maximum angular momentum                    ...      2
Integral batch strategy                     ... SHARK/LIBINT Hybrid
RI-J (if used) integral strategy            ... SPLIT-RIJ (Revised 2003 algorithm where possible)
Printlevel                                  ...      1
Contraction scheme used                     ... SEGMENTED contraction
Prescreening option                         ... SCHWARTZ
   Thresh                                   ... 2.500e-11
   Tcut                                     ... 2.500e-12
   Tpresel                                  ... 2.500e-12 
Coulomb Range Separation                    ... NOT USED
Exchange Range Separation                   ... NOT USED
Multipole approximations                    ... NOT USED
Finite Nucleus Model                        ... NOT USED
CABS basis                                  ... NOT available
Auxiliary Coulomb fitting basis             ... AVAILABLE
   # of basis functions in Aux-J            ...    360
   # of shells in Aux-J                     ...    120
   Maximum angular momentum in Aux-J        ...      4
Auxiliary J/K fitting basis                 ... NOT available
Auxiliary Correlation fitting basis         ... NOT available
Auxiliary 'external' fitting basis          ... NOT available

Checking pre-screening integrals            ... done (  0.0 sec) Dimension = 48
Check shell pair data                       ... done (  0.0 sec)
Shell pair information
Shell pair cut-off parameter TPreSel        ...   2.5e-12
Total number of shell pairs                 ...      1176
Shell pairs after pre-screening             ...      1135
Total number of primitive shell pairs       ...      4752
Primitive shell pairs kept                  ...      3396
          la=0 lb=0:    440 shell pairs
          la=1 lb=0:    354 shell pairs
          la=1 lb=1:     78 shell pairs
          la=2 lb=0:    170 shell pairs
          la=2 lb=1:     72 shell pairs
          la=2 lb=2:     21 shell pairs

Calculating one electron integrals          ... done (  0.0 sec)
Calculating RI/J V-Matrix + Cholesky decomp.... done (  0.1 sec)
Calculating Nuclear repulsion               ... done (  0.0 sec) ENN=    224.576100626275 Eh

Diagonalization of the overlap matrix:
Smallest eigenvalue                        ... 2.476e-03
Time for diagonalization                   ...    0.002 sec
Threshold for overlap eigenvalues          ... 1.000e-07
Number of eigenvalues below threshold      ... 0
Time for construction of square roots      ...    0.017 sec
Total time needed                          ...    0.047 sec

-------------------
DFT GRID GENERATION
-------------------

General Integration Accuracy     IntAcc      ... 4.388
Radial Grid Type                 RadialGrid  ... OptM3 with GC (2021)
Angular Grid (max. ang.)         AngularGrid ... 4 (Lebedev-302)
Angular grid pruning method      GridPruning ... 4 (adaptive)
Weight generation scheme         WeightScheme... mBecke (2022)
Basis function cutoff            BFCut       ... 1.0000e-11
Integration weight cutoff        WCut        ... 1.0000e-14
Partially contracted basis set               ... off
Rotationally invariant grid construction     ... off
Angular grids for H and He will be reduced by one unit

Total number of grid points                  ...    55946
Total number of batches                      ...      880
Average number of points per batch           ...       63
Average number of grid points per atom       ...     4662

--------------------
COSX GRID GENERATION
--------------------

GRIDX 1
-------
General Integration Accuracy     IntAcc      ... 3.816
Radial Grid Type                 RadialGrid  ... OptM3 with GC (2021)
Angular Grid (max. ang.)         AngularGrid ... 1 (Lebedev-50)
Angular grid pruning method      GridPruning ... 4 (adaptive)
Weight generation scheme         WeightScheme... mBecke (2022)
Basis function cutoff            BFCut       ... 1.0000e-11
Integration weight cutoff        WCut        ... 1.0000e-14
Partially contracted basis set               ... on
Rotationally invariant grid construction     ... off
Angular grids for H and He will be reduced by one unit

Total number of grid points                  ...     7169
Total number of batches                      ...       63
Average number of points per batch           ...      113
Average number of grid points per atom       ...      597
UseSFitting                                  ... on

GRIDX 2
-------
General Integration Accuracy     IntAcc      ... 4.020
Radial Grid Type                 RadialGrid  ... OptM3 with GC (2021)
Angular Grid (max. ang.)         AngularGrid ... 2 (Lebedev-110)
Angular grid pruning method      GridPruning ... 4 (adaptive)
Weight generation scheme         WeightScheme... mBecke (2022)
Basis function cutoff            BFCut       ... 1.0000e-11
Integration weight cutoff        WCut        ... 1.0000e-14
Partially contracted basis set               ... on
Rotationally invariant grid construction     ... off
Angular grids for H and He will be reduced by one unit

Total number of grid points                  ...    15674
Total number of batches                      ...      129
Average number of points per batch           ...      121
Average number of grid points per atom       ...     1306
UseSFitting                                  ... on

GRIDX 3
-------
General Integration Accuracy     IntAcc      ... 4.338
Radial Grid Type                 RadialGrid  ... OptM3 with GC (2021)
Angular Grid (max. ang.)         AngularGrid ... 3 (Lebedev-194)
Angular grid pruning method      GridPruning ... 4 (adaptive)
Weight generation scheme         WeightScheme... mBecke (2022)
Basis function cutoff            BFCut       ... 1.0000e-11
Integration weight cutoff        WCut        ... 1.0000e-14
Partially contracted basis set               ... on
Rotationally invariant grid construction     ... off
Angular grids for H and He will be reduced by one unit

Total number of grid points                  ...    34582
Total number of batches                      ...      276
Average number of points per batch           ...      125
Average number of grid points per atom       ...     2882
UseSFitting                                  ... on
Initializing property integral containers    ... done (  0.1 sec)

SHARK setup successfully completed in   2.7 seconds

Maximum memory used throughout the entire STARTUP-calculation: 16.3 MB


           ************************************************************
           *        Program running with 4 parallel MPI-processes     *
           *              working on a common directory               *
           ************************************************************
-------------------------------------------------------------------------------
                                 ORCA GUESS
                   Start orbitals & Density for SCF / CASSCF
-------------------------------------------------------------------------------

------------
SCF SETTINGS
------------
Hamiltonian:
 Density Functional     Method          .... DFT(GTOs)
 Exchange Functional    Exchange        .... PBE
   PBE kappa parameter   XKappa         ....  0.804000
   PBE mue parameter    XMuePBE         ....  0.219520
 Correlation Functional Correlation     .... PBE
   PBE beta parameter  CBetaPBE         ....  0.066725
 LDA part of GGA corr.  LDAOpt          .... PW91-LDA
 Gradients option       PostSCFGGA      .... off
 Hybrid DFT is turned on
   Fraction HF Exchange ScalHFX         ....  0.250000
   Scaling of DF-GGA-X  ScalDFX         ....  0.750000
   Scaling of DF-GGA-C  ScalDFC         ....  1.000000
   Scaling of DF-LDA-C  ScalLDAC        ....  1.000000
   Perturbative correction              ....  0.000000
   NL short-range parameter             ....  6.900000
 RI-approximation to the Coulomb term is turned on
   Number of AuxJ basis functions       .... 360
   RIJ-COSX (HFX calculated with COS-X)).... on


General Settings:
 Integral files         IntName         .... CS_PdOAc_010_opt_01
 Hartree-Fock type      HFTyp           .... RHF
 Total Charge           Charge          ....    0
 Multiplicity           Mult            ....    1
 Number of Electrons    NEL             ....   46
 Basis Dimension        Dim             ....   96
 Nuclear Repulsion      ENuc            ....    224.5761006263 Eh

Convergence Acceleration:
 AO-DIIS                CNVDIIS         .... on
   Start iteration      DIISMaxIt       ....     0
   Startup error        DIISStart       ....  0.200000
   # of expansion vecs  DIISMaxEq       ....     5
   Bias factor          DIISBfac        ....   1.050
   Max. coefficient     DIISMaxC        ....  10.000
 MO-DIIS                CNVKDIIS        .... off
 Trust-Rad. Augm. Hess. CNVTRAH         .... auto
   Auto Start mean grad. ratio tolernc. ....  1.125000
   Auto Start start iteration           ....    50
   Auto Start num. interpolation iter.  ....    10
   Max. Number of Micro iterations      ....    24
   Max. Number of Macro iterations      .... Maxiter - #DIIS iter
   Number of Davidson start vectors     ....     2
   Converg. threshold    (grad. norm)   ....   1.000e-05
   Grad. Scal. Fac. for Micro threshold ....   0.100
   Minimum threshold for Micro iter.    ....   1.000e-02
   NR start threshold (gradient norm)   ....   1.000e-04
   Initial trust radius                 ....   0.400
   Minimum AH scaling param. (alpha)    ....   1.000
   Maximum AH scaling param. (alpha)    .... 1000.000
   Quad. conv. algorithm                .... NR
   White noise on init. David. guess    .... on
   Maximum white noise                  ....   0.010
   Pseudo random numbers                .... off
   Inactive MOs                         .... canonical
   Orbital update algorithm             .... Taylor
   Preconditioner                       .... Diag
   Full preconditioner red. dimension   ....   250
 SOSCF                  CNVSOSCF        .... on
   Start iteration      SOSCFMaxIt      ....   150
   Startup grad/error   SOSCFStart      ....  0.001000
   Hessian update       SOSCFHessUp     .... L-BFGS
 Level Shifting         CNVShift        .... on
   Level shift para.    LevelShift      ....    0.2500
   Turn off err/grad.   ShiftErr        ....    0.0000
 Zerner damping         CNVZerner       .... off
 Static damping         CNVDamp         .... on
   Fraction old density DampFac         ....    0.8500
   Max. Damping (<1)    DampMax         ....    0.9800
   Min. Damping (>=0)   DampMin         ....    0.0000
   Turn off err/grad.   DampErr         ....    0.0300

SCF Procedure:
 Maximum # iterations   MaxIter         ....  1500
 SCF integral mode      SCFMode         .... Direct
   Integral package                     .... SHARK and LIBINT hybrid scheme
 Reset frequency        DirectResetFreq ....    20
 Integral Threshold     Thresh          ....  2.500e-11 Eh
 Primitive CutOff       TCut            ....  2.500e-12 Eh

Convergence Tolerance:
 Convergence Check Mode ConvCheckMode   .... Total+1el-Energy
 Convergence forced     ConvForced      .... 0
 Energy Change          TolE            ....  1.000e-08 Eh
 1-El. energy change                    ....  1.000e-05 Eh
 Orbital Gradient       TolG            ....  1.000e-05
 Orbital Rotation angle TolX            ....  1.000e-05
 DIIS Error             TolErr          ....  5.000e-07

------------------------------
INITIAL GUESS: MODEL POTENTIAL
------------------------------
Loading Hartree-Fock densities                     ... done
Calculating cut-offs                               ... done
Initializing the effective Hamiltonian             ... done
Setting up the integral package (SHARK)            ... done
Starting the Coulomb interaction                   ... done (   0.1 sec)
Making the grid                                    ... done (   0.2 sec)
Mapping shells                                     ... done
Starting the XC term evaluation                    ... done (   0.0 sec)
  promolecular density results
     # of electrons  =     45.997536111
     EX              =    -38.496437250
     EC              =     -1.511077607
     EX+EC           =    -40.007514857
Transforming the Hamiltonian                       ... done (   0.0 sec)
Diagonalizing the Hamiltonian                      ... done (   0.0 sec)
Back transforming the eigenvectors                 ... done (   0.0 sec)
Now organizing SCF variables                       ... done
                      ------------------
                      INITIAL GUESS DONE (   0.5 sec)
                      ------------------
             **** ENERGY FILE WAS UPDATED (CS_PdOAc_010_opt_01.en.tmp) ****
Finished Guess after   1.6 sec
Maximum memory used throughout the entire GUESS-calculation: 8.9 MB


           ************************************************************
           *        Program running with 4 parallel MPI-processes     *
           *              working on a common directory               *
           ************************************************************

-------------------------------------------------------------------------------------------
                                      ORCA LEAN-SCF
                              memory conserving SCF solver
-------------------------------------------------------------------------------------------

----------------------------------------D-I-I-S--------------------------------------------
Iteration    Energy (Eh)           Delta-E    RMSDP     MaxDP     DIISErr   Damp  Time(sec)
-------------------------------------------------------------------------------------------
               ***  Starting incremental Fock matrix formation  ***
    1    -305.6403758994266013     0.00e+00  2.86e-03  4.89e-02  2.64e-01  0.850   3.3
    2    -305.6968827328587963    -5.65e-02  2.71e-03  4.43e-02  1.80e-01  0.850   2.3
                               ***Turning on AO-DIIS***
    3    -305.7305655022341284    -3.37e-02  1.28e-03  2.05e-02  1.08e-01  0.850   2.7
    4    -305.7513679155188697    -2.08e-02  7.99e-04  1.36e-02  8.52e-02  0.850   4.9
    5    -305.7661622309239533    -1.48e-02  5.76e-04  9.42e-03  7.31e-02  0.850   4.1
    6    -305.7778088927255453    -1.16e-02  4.63e-04  7.17e-03  6.32e-02  0.850   1.2
    7    -305.7874312064508899    -9.62e-03  4.07e-04  7.20e-03  5.32e-02  0.850   2.5
    8    -305.7954708079387842    -8.04e-03  3.41e-04  5.50e-03  4.31e-02  0.850   1.3
    9    -305.8020722068972077    -6.60e-03  2.85e-04  4.70e-03  3.56e-02  0.850   1.7
   10    -305.8075134896186569    -5.44e-03  2.38e-04  3.94e-03  3.01e-02  0.850   1.4
   11    -305.8120373633281019    -4.52e-03  2.00e-04  3.16e-03  2.56e-02  0.850   2.7
   12    -305.8158239037716726    -3.79e-03  1.13e-03  1.80e-02  2.15e-02  0.000   2.2
   13    -305.8362271710854543    -2.04e-02  1.22e-04  2.59e-03  3.24e-03  0.000   2.4
   14    -305.8362394454451874    -1.23e-05  4.09e-05  6.63e-04  1.32e-03  0.000   2.4
                              *** Initializing SOSCF ***
---------------------------------------S-O-S-C-F--------------------------------------
Iteration    Energy (Eh)           Delta-E    RMSDP     MaxDP     MaxGrad    Time(sec)
--------------------------------------------------------------------------------------
   15    -305.8362451985755683    -5.75e-06  1.02e-05  1.72e-04  2.88e-04     2.2
               *** Restarting incremental Fock matrix formation ***
   16    -305.8362563699694761    -1.12e-05  1.81e-05  2.39e-04  3.62e-05     1.8
   17    -305.8362563727500287    -2.78e-09  6.78e-06  8.22e-05  5.07e-05     1.4
                 **** Energy Check signals convergence ****

               *****************************************************
               *                     SUCCESS                       *
               *           SCF CONVERGED AFTER  17 CYCLES          *
               *****************************************************

Recomputing exchange energy using gridx3       ... done (    0.845 sec)
Old exchange energy                            :     -9.798869162 Eh
New exchange energy                            :     -9.798859197 Eh
Exchange energy change after final integration :      0.000009965 Eh
Total energy after final integration           :   -305.836246407 Eh
             **** ENERGY FILE WAS UPDATED (CS_PdOAc_010_opt_01.en.tmp) ****

----------------
TOTAL SCF ENERGY
----------------

Total Energy       :       -305.83624640742039 Eh           -8322.22736 eV

Components:
Nuclear Repulsion  :        224.57610062627515 Eh            6111.02638 eV
Electronic Energy  :       -530.41235699902518 Eh          -14433.25401 eV
One Electron Energy:       -860.26273637360646 Eh          -23408.93914 eV
Two Electron Energy:        329.85037937458128 Eh            8975.68514 eV

Virial components:
Potential Energy   :       -609.21143717686596 Eh          -16577.48599 eV
Kinetic Energy     :        303.37519076944562 Eh            8255.25863 eV
Virial Ratio       :          2.00811225081304

DFT components:
N(Alpha)           :       23.000022055576 electrons
N(Beta)            :       23.000022055576 electrons
N(Total)           :       46.000044111151 electrons
E(X)               :      -29.351142605181 Eh       
E(C)               :       -1.528628333490 Eh       
E(XC)              :      -30.879770938670 Eh       

---------------
SCF CONVERGENCE
---------------

  Last Energy change         ...    2.7806e-09  Tolerance :   1.0000e-08
  Last MAX-Density change    ...    8.2179e-05  Tolerance :   1.0000e-07
  Last RMS-Density change    ...    6.7783e-06  Tolerance :   5.0000e-09
  Last DIIS Error            ...    2.8767e-04  Tolerance :   5.0000e-07
  Last Orbital Gradient      ...    5.0715e-05  Tolerance :   1.0000e-05
  Last Orbital Rotation      ...    4.8943e-05  Tolerance :   1.0000e-05


----------------
ORBITAL ENERGIES
----------------

  NO   OCC          E(Eh)            E(eV) 
   0   2.0000     -19.297872      -525.1218 
   1   2.0000     -19.187777      -522.1260 
   2   2.0000     -10.367960      -282.1265 
   3   2.0000     -10.317300      -280.7480 
   4   2.0000     -10.254402      -279.0365 
   5   2.0000     -10.234077      -278.4834 
   6   2.0000      -1.172086       -31.8941 
   7   2.0000      -1.016657       -27.6646 
   8   2.0000      -0.822555       -22.3829 
   9   2.0000      -0.766513       -20.8579 
  10   2.0000      -0.683029       -18.5862 
  11   2.0000      -0.582617       -15.8538 
  12   2.0000      -0.522595       -14.2205 
  13   2.0000      -0.521713       -14.1965 
  14   2.0000      -0.494284       -13.4502 
  15   2.0000      -0.473104       -12.8738 
  16   2.0000      -0.435451       -11.8492 
  17   2.0000      -0.426864       -11.6156 
  18   2.0000      -0.409508       -11.1433 
  19   2.0000      -0.359928        -9.7941 
  20   2.0000      -0.343573        -9.3491 
  21   2.0000      -0.291680        -7.9370 
  22   2.0000      -0.277059        -7.5392 
  23   0.0000      -0.015432        -0.4199 
  24   0.0000       0.020082         0.5465 
  25   0.0000       0.072208         1.9649 
  26   0.0000       0.088346         2.4040 
  27   0.0000       0.107450         2.9239 
  28   0.0000       0.127335         3.4650 
  29   0.0000       0.143324         3.9000 
  30   0.0000       0.150271         4.0891 
  31   0.0000       0.185930         5.0594 
  32   0.0000       0.238067         6.4781 
  33   0.0000       0.271703         7.3934 
*Only the first 10 virtual orbitals were printed.

                    ********************************
                    * MULLIKEN POPULATION ANALYSIS *
                    ********************************

-----------------------
MULLIKEN ATOMIC CHARGES
-----------------------
   0 O :   -0.224492
   1 C :    0.179226
   2 O :   -0.304657
   3 C :   -0.320100
   4 H :    0.155748
   5 H :    0.141374
   6 H :    0.156480
   7 C :    0.083254
   8 H :    0.139528
   9 C :   -0.306196
  10 H :    0.138229
  11 H :    0.161606
Sum of atomic charges:    0.0000000

--------------------------------
MULLIKEN REDUCED ORBITAL CHARGES
--------------------------------
  0 O s       :     3.692252  s :     3.692252
      pz      :     1.454410  p :     4.513777
      px      :     1.526305
      py      :     1.533062
      dz2     :     0.004209  d :     0.018463
      dxz     :     0.003214
      dyz     :     0.002941
      dx2y2   :     0.003889
      dxy     :     0.004210

  1 C s       :     3.056373  s :     3.056373
      pz      :     0.854188  p :     2.622128
      px      :     0.838783
      py      :     0.929157
      dz2     :     0.013094  d :     0.142272
      dxz     :     0.030923
      dyz     :     0.010891
      dx2y2   :     0.041867
      dxy     :     0.045497

  2 O s       :     3.797574  s :     3.797574
      pz      :     1.469204  p :     4.490647
      px      :     1.352052
      py      :     1.669391
      dz2     :     0.002117  d :     0.016436
      dxz     :     0.004850
      dyz     :     0.000453
      dx2y2   :     0.004961
      dxy     :     0.004055

  3 C s       :     3.100824  s :     3.100824
      pz      :     1.068996  p :     3.190136
      px      :     1.099282
      py      :     1.021858
      dz2     :     0.002213  d :     0.029141
      dxz     :     0.008539
      dyz     :     0.007790
      dx2y2   :     0.006818
      dxy     :     0.003781

  4 H s       :     0.844252  s :     0.844252

  5 H s       :     0.858626  s :     0.858626

  6 H s       :     0.843520  s :     0.843520

  7 C s       :     3.059561  s :     3.059561
      pz      :     0.778092  p :     2.798243
      px      :     1.080150
      py      :     0.940002
      dz2     :     0.016898  d :     0.058942
      dxz     :     0.013318
      dyz     :     0.013134
      dx2y2   :     0.009141
      dxy     :     0.006450

  8 H s       :     0.860472  s :     0.860472

  9 C s       :     3.194662  s :     3.194662
      pz      :     1.024462  p :     3.080848
      px      :     1.027458
      py      :     1.028928
      dz2     :     0.007241  d :     0.030686
      dxz     :     0.006209
      dyz     :     0.005225
      dx2y2   :     0.008035
      dxy     :     0.003976

 10 H s       :     0.861771  s :     0.861771

 11 H s       :     0.838394  s :     0.838394



                     *******************************
                     * LOEWDIN POPULATION ANALYSIS *
                     *******************************

----------------------
LOEWDIN ATOMIC CHARGES
----------------------
   0 O :   -0.025104
   1 C :    0.057231
   2 O :   -0.231944
   3 C :   -0.362008
   4 H :    0.150689
   5 H :    0.139231
   6 H :    0.147020
   7 C :   -0.021996
   8 H :    0.141650
   9 C :   -0.275976
  10 H :    0.129531
  11 H :    0.151675

-------------------------------
LOEWDIN REDUCED ORBITAL CHARGES
-------------------------------
  0 O s       :     3.403894  s :     3.403894
      pz      :     1.460383  p :     4.584627
      px      :     1.584835
      py      :     1.539410
      dz2     :     0.008587  d :     0.036583
      dxz     :     0.005557
      dyz     :     0.005996
      dx2y2   :     0.007341
      dxy     :     0.009101

  1 C s       :     2.837669  s :     2.837669
      pz      :     0.857359  p :     2.792333
      px      :     0.977548
      py      :     0.957426
      dz2     :     0.028109  d :     0.312766
      dxz     :     0.062271
      dyz     :     0.022147
      dx2y2   :     0.101272
      dxy     :     0.098968

  2 O s       :     3.585214  s :     3.585214
      pz      :     1.477897  p :     4.618876
      px      :     1.463795
      py      :     1.677184
      dz2     :     0.003767  d :     0.027854
      dxz     :     0.007126
      dyz     :     0.000751
      dx2y2   :     0.009687
      dxy     :     0.006522

  3 C s       :     2.957932  s :     2.957932
      pz      :     1.116248  p :     3.335140
      px      :     1.140984
      py      :     1.077908
      dz2     :     0.004820  d :     0.068936
      dxz     :     0.019306
      dyz     :     0.019510
      dx2y2   :     0.016398
      dxy     :     0.008903

  4 H s       :     0.849311  s :     0.849311

  5 H s       :     0.860769  s :     0.860769

  6 H s       :     0.852980  s :     0.852980

  7 C s       :     2.900916  s :     2.900916
      pz      :     0.882159  p :     2.991057
      px      :     1.147065
      py      :     0.961832
      dz2     :     0.036264  d :     0.130023
      dxz     :     0.032086
      dyz     :     0.027993
      dx2y2   :     0.019448
      dxy     :     0.014232

  8 H s       :     0.858350  s :     0.858350

  9 C s       :     2.965304  s :     2.965304
      pz      :     1.078936  p :     3.238817
      px      :     1.108186
      py      :     1.051695
      dz2     :     0.016465  d :     0.071855
      dxz     :     0.017099
      dyz     :     0.010958
      dx2y2   :     0.018245
      dxy     :     0.009088

 10 H s       :     0.870469  s :     0.870469

 11 H s       :     0.848325  s :     0.848325



                      *****************************
                      * MAYER POPULATION ANALYSIS *
                      *****************************

  NA   - Mulliken gross atomic population
  ZA   - Total nuclear charge
  QA   - Mulliken gross atomic charge
  VA   - Mayer's total valence
  BVA  - Mayer's bonded valence
  FA   - Mayer's free valence

  ATOM       NA         ZA         QA         VA         BVA        FA
  0 O      8.2245     8.0000    -0.2245     2.2081     2.2081    -0.0000
  1 C      5.8208     6.0000     0.1792     4.3410     4.3410     0.0000
  2 O      8.3047     8.0000    -0.3047     2.1673     2.1673    -0.0000
  3 C      6.3201     6.0000    -0.3201     3.8598     3.8598     0.0000
  4 H      0.8443     1.0000     0.1557     0.9494     0.9494     0.0000
  5 H      0.8586     1.0000     0.1414     0.9532     0.9532     0.0000
  6 H      0.8435     1.0000     0.1565     0.9693     0.9693     0.0000
  7 C      5.9167     6.0000     0.0833     3.9876     3.9876     0.0000
  8 H      0.8605     1.0000     0.1395     0.9771     0.9771    -0.0000
  9 C      6.3062     6.0000    -0.3062     3.9754     3.9754     0.0000
 10 H      0.8618     1.0000     0.1382     0.9462     0.9462     0.0000
 11 H      0.8384     1.0000     0.1616     0.9333     0.9333     0.0000

  Mayer bond orders larger than 0.100000
B(  0-O ,  1-C ) :   1.1887 B(  0-O ,  7-C ) :   0.9182 B(  1-C ,  2-O ) :   2.0148 
B(  1-C ,  3-C ) :   1.0684 B(  3-C ,  4-H ) :   0.9281 B(  3-C ,  5-H ) :   0.9332 
B(  3-C ,  6-H ) :   0.9451 B(  7-C ,  8-H ) :   0.9115 B(  7-C ,  9-C ) :   2.0752 
B(  9-C , 10-H ) :   0.9320 B(  9-C , 11-H ) :   0.9088 

-------
TIMINGS
-------

Total SCF time: 0 days 0 hours 0 min 44 sec 

Total time                  ....      44.146 sec
Sum of individual times     ....      40.972 sec  ( 92.8%)

SCF preparation             ....       0.598 sec  (  1.4%)
Fock matrix formation       ....      26.020 sec  ( 58.9%)
  Startup                   ....       2.104 sec  (  8.1% of F)
  Split-RI-J                ....       5.811 sec  ( 22.3% of F)
  Chain of spheres X        ....       9.633 sec  ( 37.0% of F)
  XC integration            ....       3.862 sec  ( 14.8% of F)
    XC Preparation          ....       0.000 sec  (  0.0% of XC)
    Basis function eval.    ....       0.823 sec  ( 21.3% of XC)
    Density eval.           ....       0.323 sec  (  8.4% of XC)
    XC-Functional eval.     ....       0.252 sec  (  6.5% of XC)
    XC-Potential eval.      ....       0.336 sec  (  8.7% of XC)
Diagonalization             ....       0.000 sec  (  0.0%)
Density matrix formation    ....       4.001 sec  (  9.1%)
Total Energy calculation    ....       0.922 sec  (  2.1%)
Population analysis         ....       0.309 sec  (  0.7%)
Orbital Transformation      ....       0.195 sec  (  0.4%)
Orbital Orthonormalization  ....       0.000 sec  (  0.0%)
DIIS solution               ....       8.651 sec  ( 19.6%)
SOSCF solution              ....       0.276 sec  (  0.6%)
Finished LeanSCF after  44.3 sec

Maximum memory used throughout the entire LEANSCF-calculation: 10.7 MB


-------------------------------------------------------------------------------
                          DFT DISPERSION CORRECTION                            
                                                                               
                              DFTD3 V3.1  Rev 1                                
                          USING Becke-Johnson damping                          
-------------------------------------------------------------------------------
The PBE0 functional is recognized
Active option DFTDOPT                   ...         4   

molecular C6(AA) [au] = 1339.131614 


            DFT-D V3
 parameters
 s6 scaling factor         :     1.0000 
 a1 scaling factor         :     0.4145 
 s8 scaling factor         :     1.2177 
 a2 scaling factor         :     4.8593 
 ad hoc parameters k1-k3   :    16.0000     1.3333    -4.0000 

 Edisp/kcal,au: -4.193068771019  -0.006682079709 
 E6   /kcal   :  -2.691191220 
 E8   /kcal   :  -1.501877551 
 % E8         :  35.818099659 

-------------------------   ----------------
Dispersion correction           -0.006682080
-------------------------   ----------------


-------------------------   --------------------
FINAL SINGLE POINT ENERGY      -305.842928487129
-------------------------   --------------------



           ************************************************************
           *        Program running with 4 parallel MPI-processes     *
           *              working on a common directory               *
           ************************************************************
------------------------------------------------------------------------------
                         ORCA SCF GRADIENT CALCULATION
------------------------------------------------------------------------------

Nuc. rep. gradient        (SHARK) ... done (  0.0 sec)
HCore & Overlap gradient  (SHARK) ... done (  0.0 sec)
Split-RIJ-J gradient      (SHARK) ... done (  0.4 sec)
COSX-gradient                     ... done (  3.1 sec)
XC gradient                       ... done (  0.8 sec)
Dispersion correction             ... done (  0.0 sec)

-------------------
DISPERSION GRADIENT
-------------------

   1   O   :    0.000005193    0.000027279    0.000029464
   2   C   :   -0.000059415   -0.000042926    0.000065749
   3   O   :   -0.000145441    0.000004930    0.000024736
   4   C   :   -0.000030855   -0.000114192    0.000092779
   5   H   :    0.000004977   -0.000098400    0.000026848
   6   H   :    0.000021369   -0.000058220    0.000068888
   7   H   :   -0.000028561   -0.000055877    0.000041787
   8   C   :    0.000032915    0.000104877   -0.000073553
   9   H   :   -0.000010764    0.000051399   -0.000048089
  10   C   :    0.000118748    0.000114176   -0.000135725
  11   H   :    0.000066964    0.000030922   -0.000040429
  12   H   :    0.000024871    0.000036030   -0.000052456

Difference to translation invariance:
           :   -0.0000000000   -0.0000000000    0.0000000000

Difference to rotation invariance:
           :    0.0000000000    0.0000000000    0.0000000000

Norm of the Dispersion gradient    ...    0.0004003659
RMS gradient                       ...    0.0000667276
MAX gradient                       ...    0.0001454411

------------------
CARTESIAN GRADIENT
------------------

   1   O   :   -0.105189361   -0.062681391    0.067298213
   2   C   :    0.160750848    0.043243801   -0.008392292
   3   O   :   -0.067466364    0.003419108   -0.006247703
   4   C   :   -0.012059585   -0.014087295    0.000374412
   5   H   :   -0.004175437    0.006824553    0.005593367
   6   H   :   -0.008088073    0.002931959   -0.008520682
   7   H   :    0.007604639    0.000069376   -0.002359732
   8   C   :    0.043603375   -0.013128883    0.008254769
   9   H   :    0.017727299    0.011699810   -0.018200069
  10   C   :   -0.030757879    0.023336658   -0.039958433
  11   H   :   -0.010344871   -0.000838287   -0.000308572
  12   H   :    0.008395408   -0.000789408    0.002466724

Difference to translation invariance:
           :   -0.0000000000    0.0000000001   -0.0000000000

Difference to rotation invariance:
           :   -0.0001135416    0.0000566591    0.0000237182

Norm of the Cartesian gradient     ...    0.2423888405
RMS gradient                       ...    0.0403981401
MAX gradient                       ...    0.1607508484

-------
TIMINGS
-------

Total SCF gradient time     ....        4.386 sec

Densities                   ....       0.000 sec  (  0.0%)
One electron gradient       ....       0.032 sec  (  0.7%)
RI-J Coulomb gradient       ....       0.374 sec  (  8.5%)
COSX gradient               ....       3.114 sec  ( 71.0%)
XC gradient                 ....       0.796 sec  ( 18.1%)

Maximum memory used throughout the entire SCFGRAD-calculation: 26.9 MB
------------------------------------------------------------------------------
                         ORCA GEOMETRY RELAXATION STEP
------------------------------------------------------------------------------

Reading the OPT-File                    .... done
Getting information on internals        .... done
Copying old internal coords+grads       .... done
Making the new internal coordinates     .... (2022 redundants) done
Validating the new internal coordinates .... (2022 redundants) done
Calculating the B-matrix                .... done
Calculating the G,G- and P matrices     .... done
Transforming gradient to internals      .... done
Projecting the internal gradient        .... done
Number of atoms                         ....  12
Number of internal coordinates          ....  40
Current Energy                          ....  -305.842928487 Eh
Current gradient norm                   ....     0.242388841 Eh/bohr
Maximum allowed component of the step   ....  0.300
Current trust radius                    ....  0.300
Evaluating the initial hessian          ....  (Almloef) done
Projecting the Hessian                  .... done
Forming the augmented Hessian           .... done
Diagonalizing the augmented Hessian     .... done
Last element of RFO vector              ....  0.959699037
Lowest eigenvalues of augmented Hessian:
 -0.039692936  0.012275499  0.015722649  0.030976340  0.031662536
Length of the computed step             ....  0.292831195
The final length of the internal step   ....  0.292831195
Converting the step to Cartesian space:
 Initial RMS(Int)=    0.0463006774
Transforming coordinates:
 Iter   0:  RMS(Cart)=    0.0781742554 RMS(Int)=    0.0465077891
 Iter   5:  RMS(Cart)=    0.0000002647 RMS(Int)=    0.0000001486
done
Storing new coordinates                 .... done

                                .--------------------.
          ----------------------|Geometry convergence|-------------------------
          Item                value                   Tolerance       Converged
          ---------------------------------------------------------------------
          RMS gradient        0.0244615473            0.0001000000      NO
          MAX gradient        0.0895065183            0.0003000000      NO
          RMS step            0.0463006774            0.0020000000      NO
          MAX step            0.1360104532            0.0040000000      NO
          ........................................................
          Max(Bonds)      0.0553      Max(Angles)    7.79
          Max(Dihed)        4.90      Max(Improp)    0.00
          ---------------------------------------------------------------------

The optimization has not yet converged - more geometry cycles are needed


    ---------------------------------------------------------------------------
                         Redundant Internal Coordinates
                            (Angstroem and degrees)

        Definition                    Value    dE/dq     Step     New-Value
    ----------------------------------------------------------------------------
     1. B(C   1,O   0)                1.2553 -0.089507  0.0495    1.3047   
     2. B(O   2,C   1)                1.2555  0.065536 -0.0362    1.2193   
     3. B(C   3,C   1)                1.5067 -0.000711  0.0008    1.5075   
     4. B(H   4,C   3)                1.0909 -0.009665  0.0128    1.1037   
     5. B(H   5,C   3)                1.0873 -0.011404  0.0150    1.1023   
     6. B(H   6,C   3)                1.0857 -0.007523  0.0098    1.0956   
     7. B(C   7,O   0)                1.4400  0.052809 -0.0553    1.3847   
     8. B(H   8,C   7)                1.0897 -0.005814  0.0077    1.0974   
     9. B(C   9,C   7)                1.3384  0.010460 -0.0070    1.3314   
    10. B(H  10,C   9)                1.0858 -0.010186  0.0133    1.0991   
    11. B(H  11,C   9)                1.0849 -0.004881  0.0064    1.0912   
    12. A(C   1,O   0,C   7)          118.32  0.001975   -0.24    118.09   
    13. A(O   2,C   1,C   3)          116.85 -0.026527    3.17    120.03   
    14. A(O   0,C   1,C   3)          116.34  0.012171   -1.56    114.78   
    15. A(O   0,C   1,O   2)          126.80  0.014331   -1.60    125.20   
    16. A(H   4,C   3,H   5)          108.08  0.002866   -0.41    107.67   
    17. A(C   1,C   3,H   6)          110.61  0.005051   -0.81    109.80   
    18. A(C   1,C   3,H   5)          109.89 -0.006613    1.07    110.96   
    19. A(H   5,C   3,H   6)          111.09  0.000436   -0.06    111.03   
    20. A(H   4,C   3,H   6)          109.15 -0.000942    0.08    109.23   
    21. A(C   1,C   3,H   4)          107.93 -0.000848    0.13    108.06   
    22. A(H   8,C   7,C   9)          104.70 -0.057638    7.79    112.50   
    23. A(O   0,C   7,C   9)          140.91  0.058968   -7.60    133.31   
    24. A(O   0,C   7,H   8)          114.39 -0.001329   -0.19    114.19   
    25. A(C   7,C   9,H  11)          120.84  0.011192   -1.62    119.23   
    26. A(C   7,C   9,H  10)          122.90 -0.007453    1.02    123.92   
    27. A(H  10,C   9,H  11)          116.26 -0.003739    0.60    116.86   
    28. D(C   3,C   1,O   0,C   7)    143.82 -0.009101    4.90    148.72   
    29. D(O   2,C   1,O   0,C   7)    -34.81 -0.007431    3.96    -30.86   
    30. D(H   5,C   3,C   1,O   2)   -141.13 -0.000667    0.41   -140.72   
    31. D(H   5,C   3,C   1,O   0)     40.10  0.000315   -0.37     39.72   
    32. D(H   4,C   3,C   1,O   2)    101.23  0.000054    0.23    101.46   
    33. D(H   6,C   3,C   1,O   0)    163.11 -0.000241   -0.26    162.85   
    34. D(H   4,C   3,C   1,O   0)    -77.55  0.001036   -0.55    -78.10   
    35. D(C   9,C   7,O   0,C   1)   -156.75  0.002186   -2.31   -159.07   
    36. D(H   8,C   7,O   0,C   1)     23.78  0.002386   -2.43     21.35   
    37. D(H  11,C   9,C   7,H   8)     -0.13  0.000492   -0.33     -0.45   
    38. D(H  11,C   9,C   7,O   0)   -179.63  0.000553   -0.42   -180.04   
    39. D(H  10,C   9,C   7,H   8)    179.87  0.000722   -0.49    179.38   
    40. D(H  10,C   9,C   7,O   0)      0.37  0.000783   -0.58     -0.21   
    ----------------------------------------------------------------------------

Geometry step timings:
Preparation and reading OPT file:      0.004 s ( 8.735 %)
Internal coordinates            :      0.000 s ( 0.075 %)
B/P matrices and projection     :      0.000 s ( 1.051 %)
Hessian update/contruction      :      0.021 s (45.074 %)
Making the step                 :      0.000 s ( 0.762 %)
Converting the step to Cartesian:      0.000 s ( 0.192 %)
Storing new data                :      0.006 s (12.622 %)
Checking convergence            :      0.000 s ( 0.013 %)
Final printing                  :      0.015 s (31.446 %)
Total time                      :      0.046 s

Time for energy+gradient        :     59.390 s
Time for complete geometry iter :     61.737 s

         *************************************************************
         *                GEOMETRY OPTIMIZATION CYCLE   2            *
         *************************************************************
---------------------------------
CARTESIAN COORDINATES (ANGSTROEM)
---------------------------------
  O      0.007696   -0.004446   -0.106769
  C     -1.072912   -0.669483    0.197025
  O     -2.209106   -0.333367   -0.090491
  C     -0.834185   -1.950835    0.954505
  H     -0.501083   -2.717413    0.233678
  H     -0.033795   -1.823897    1.701672
  H     -1.765342   -2.281144    1.427895
  C      0.007174    0.742817   -1.272534
  H     -0.993760    1.003425   -1.639188
  C      0.975509    1.224280   -2.049143
  H      2.047460    1.083292   -1.851351
  H      0.709579    1.797995   -2.938455

----------------------------
CARTESIAN COORDINATES (A.U.)
----------------------------
  NO LB      ZA    FRAG     MASS         X           Y           Z
   0 O     8.0000    0    15.999    0.014544   -0.008402   -0.201764
   1 C     6.0000    0    12.011   -2.027510   -1.265140    0.372324
   2 O     8.0000    0    15.999   -4.174605   -0.629972   -0.171003
   3 C     6.0000    0    12.011   -1.576381   -3.686545    1.803754
   4 H     1.0000    0     1.008   -0.946910   -5.135166    0.441587
   5 H     1.0000    0     1.008   -0.063863   -3.446666    3.215694
   6 H     1.0000    0     1.008   -3.336013   -4.310737    2.698331
   7 C     6.0000    0    12.011    0.013557    1.403720   -2.404740
   8 H     1.0000    0     1.008   -1.877935    1.896198   -3.097617
   9 C     6.0000    0    12.011    1.843445    2.313553   -3.872320
  10 H     1.0000    0     1.008    3.869139    2.047125   -3.498547
  11 H     1.0000    0     1.008    1.340910    3.397719   -5.552876

--------------------------------
INTERNAL COORDINATES (ANGSTROEM)
--------------------------------
 O      0   0   0     0.000000000000     0.00000000     0.00000000
 C      1   0   0     1.304714597539     0.00000000     0.00000000
 O      2   1   0     1.219251921238   125.19691423     0.00000000
 C      2   1   3     1.507524569122   114.77683287   179.54356665
 H      4   2   1     1.103716469611   108.05781697   281.89415103
 H      4   2   1     1.102268279370   110.95890752    39.71851098
 H      4   2   1     1.095561488707   109.80284830   162.84649757
 C      1   2   3     1.384705577014   118.08542297   329.15921802
 H      8   1   2     1.097370400945   114.19196347    21.35192328
 C      8   1   2     1.331391036121   133.31085634   200.93326098
 H     10   8   1     1.099126106925   123.91577794   359.79436219
 H     10   8   1     1.091212264276   119.22639211   179.95842707

---------------------------
INTERNAL COORDINATES (A.U.)
---------------------------
 O      0   0   0     0.000000000000     0.00000000     0.00000000
 C      1   0   0     2.465553272278     0.00000000     0.00000000
 O      2   1   0     2.304052219397   125.19691423     0.00000000
 C      2   1   3     2.848808575799   114.77683287   179.54356665
 H      4   2   1     2.085721857062   108.05781697   281.89415103
 H      4   2   1     2.082985174117   110.95890752    39.71851098
 H      4   2   1     2.070311176527   109.80284830   162.84649757
 C      1   2   3     2.616714316670   118.08542297   329.15921802
 H      8   1   2     2.073729525257   114.19196347    21.35192328
 C      8   1   2     2.515964435427   133.31085634   200.93326098
 H     10   8   1     2.077047328732   123.91577794   359.79436219
 H     10   8   1     2.062092333458   119.22639211   179.95842707



           ************************************************************
           *        Program running with 4 parallel MPI-processes     *
           *              working on a common directory               *
           ************************************************************
------------------------------------------------------------------------------
                   ___                                                        
                  /   \      - P O W E R E D   B Y -                         
                 /     \                                                     
                 |  |  |   _    _      __       _____    __    __             
                 |  |  |  | |  | |    /  \     |  _  \  |  |  /  |          
                  \  \/   | |  | |   /    \    | | | |  |  | /  /          
                 / \  \   | |__| |  /  /\  \   | |_| |  |  |/  /          
                |  |  |   |  __  | /  /__\  \  |    /   |      \           
                |  |  |   | |  | | |   __   |  |    \   |  |\   \          
                \     /   | |  | | |  |  |  |  | |\  \  |  | \   \       
                 \___/    |_|  |_| |__|  |__|  |_| \__\ |__|  \__/        
                                                                              
                      - O R C A' S   B I G   F R I E N D -                    
                                      &                                       
                       - I N T E G R A L  F E E D E R -                       
                                                                              
 v1 FN, 2020, v2 2021, v3 2022-2024                                           
------------------------------------------------------------------------------


----------------------
SHARK INTEGRAL PACKAGE
----------------------

Number of atoms                             ...     12
Number of basis functions                   ...     96
Number of shells                            ...     48
Maximum angular momentum                    ...      2
Integral batch strategy                     ... SHARK/LIBINT Hybrid
RI-J (if used) integral strategy            ... SPLIT-RIJ (Revised 2003 algorithm where possible)
Printlevel                                  ...      1
Contraction scheme used                     ... SEGMENTED contraction
Prescreening option                         ... SCHWARTZ
   Thresh                                   ... 2.500e-11
   Tcut                                     ... 2.500e-12
   Tpresel                                  ... 2.500e-12 
Coulomb Range Separation                    ... NOT USED
Exchange Range Separation                   ... NOT USED
Multipole approximations                    ... NOT USED
Finite Nucleus Model                        ... NOT USED
CABS basis                                  ... NOT available
Auxiliary Coulomb fitting basis             ... AVAILABLE
   # of basis functions in Aux-J            ...    360
   # of shells in Aux-J                     ...    120
   Maximum angular momentum in Aux-J        ...      4
Auxiliary J/K fitting basis                 ... NOT available
Auxiliary Correlation fitting basis         ... NOT available
Auxiliary 'external' fitting basis          ... NOT available

Checking pre-screening integrals            ... done (  0.0 sec) Dimension = 48
Check shell pair data                       ... done (  0.0 sec)
Shell pair information
Shell pair cut-off parameter TPreSel        ...   2.5e-12
Total number of shell pairs                 ...      1176
Shell pairs after pre-screening             ...      1136
Total number of primitive shell pairs       ...      4752
Primitive shell pairs kept                  ...      3399
          la=0 lb=0:    440 shell pairs
          la=1 lb=0:    355 shell pairs
          la=1 lb=1:     78 shell pairs
          la=2 lb=0:    170 shell pairs
          la=2 lb=1:     72 shell pairs
          la=2 lb=2:     21 shell pairs

Calculating one electron integrals          ... done (  0.0 sec)
Calculating RI/J V-Matrix + Cholesky decomp.... done (  0.0 sec)
Calculating Nuclear repulsion               ... done (  0.0 sec) ENN=    225.874591669926 Eh

Diagonalization of the overlap matrix:
Smallest eigenvalue                        ... 2.453e-03
Time for diagonalization                   ...    0.002 sec
Threshold for overlap eigenvalues          ... 1.000e-07
Number of eigenvalues below threshold      ... 0
Time for construction of square roots      ...    0.013 sec
Total time needed                          ...    0.040 sec

-------------------
DFT GRID GENERATION
-------------------

General Integration Accuracy     IntAcc      ... 4.388
Radial Grid Type                 RadialGrid  ... OptM3 with GC (2021)
Angular Grid (max. ang.)         AngularGrid ... 4 (Lebedev-302)
Angular grid pruning method      GridPruning ... 4 (adaptive)
Weight generation scheme         WeightScheme... mBecke (2022)
Basis function cutoff            BFCut       ... 1.0000e-11
Integration weight cutoff        WCut        ... 1.0000e-14
Partially contracted basis set               ... off
Rotationally invariant grid construction     ... off
Angular grids for H and He will be reduced by one unit

Total number of grid points                  ...    55958
Total number of batches                      ...      879
Average number of points per batch           ...       63
Average number of grid points per atom       ...     4663

--------------------
COSX GRID GENERATION
--------------------

GRIDX 1
-------
General Integration Accuracy     IntAcc      ... 3.816
Radial Grid Type                 RadialGrid  ... OptM3 with GC (2021)
Angular Grid (max. ang.)         AngularGrid ... 1 (Lebedev-50)
Angular grid pruning method      GridPruning ... 4 (adaptive)
Weight generation scheme         WeightScheme... mBecke (2022)
Basis function cutoff            BFCut       ... 1.0000e-11
Integration weight cutoff        WCut        ... 1.0000e-14
Partially contracted basis set               ... on
Rotationally invariant grid construction     ... off
Angular grids for H and He will be reduced by one unit

Total number of grid points                  ...     7168
Total number of batches                      ...       63
Average number of points per batch           ...      113
Average number of grid points per atom       ...      597
UseSFitting                                  ... on

GRIDX 2
-------
General Integration Accuracy     IntAcc      ... 4.020
Radial Grid Type                 RadialGrid  ... OptM3 with GC (2021)
Angular Grid (max. ang.)         AngularGrid ... 2 (Lebedev-110)
Angular grid pruning method      GridPruning ... 4 (adaptive)
Weight generation scheme         WeightScheme... mBecke (2022)
Basis function cutoff            BFCut       ... 1.0000e-11
Integration weight cutoff        WCut        ... 1.0000e-14
Partially contracted basis set               ... on
Rotationally invariant grid construction     ... off
Angular grids for H and He will be reduced by one unit

Total number of grid points                  ...    15683
Total number of batches                      ...      129
Average number of points per batch           ...      121
Average number of grid points per atom       ...     1307
UseSFitting                                  ... on

GRIDX 3
-------
General Integration Accuracy     IntAcc      ... 4.338
Radial Grid Type                 RadialGrid  ... OptM3 with GC (2021)
Angular Grid (max. ang.)         AngularGrid ... 3 (Lebedev-194)
Angular grid pruning method      GridPruning ... 4 (adaptive)
Weight generation scheme         WeightScheme... mBecke (2022)
Basis function cutoff            BFCut       ... 1.0000e-11
Integration weight cutoff        WCut        ... 1.0000e-14
Partially contracted basis set               ... on
Rotationally invariant grid construction     ... off
Angular grids for H and He will be reduced by one unit

Total number of grid points                  ...    34558
Total number of batches                      ...      276
Average number of points per batch           ...      125
Average number of grid points per atom       ...     2880
UseSFitting                                  ... on
Initializing property integral containers    ... done (  0.1 sec)

SHARK setup successfully completed in   1.6 seconds

Maximum memory used throughout the entire STARTUP-calculation: 16.4 MB


           ************************************************************
           *        Program running with 4 parallel MPI-processes     *
           *              working on a common directory               *
           ************************************************************
Occupation numbers will be reassigned to an Aufbau configuration
             **** ENERGY FILE WAS UPDATED (CS_PdOAc_010_opt_01.en.tmp) ****
Finished Guess after   0.8 sec
Maximum memory used throughout the entire GUESS-calculation: 7.1 MB


           ************************************************************
           *        Program running with 4 parallel MPI-processes     *
           *              working on a common directory               *
           ************************************************************
----------------------------------------D-I-I-S--------------------------------------------
Iteration    Energy (Eh)           Delta-E    RMSDP     MaxDP     DIISErr   Damp  Time(sec)
-------------------------------------------------------------------------------------------
               ***  Starting incremental Fock matrix formation  ***
    1    -305.8559006118050547     0.00e+00  3.80e-04  3.50e-03  2.42e-02  0.850   3.0
    2    -305.8573335585498398    -1.43e-03  3.85e-04  3.39e-03  2.16e-02  0.850   1.5
                               ***Turning on AO-DIIS***
    3    -305.8586049810995746    -1.27e-03  3.49e-04  3.24e-03  1.88e-02  0.850   1.5
    4    -305.8596834452015401    -1.08e-03  2.07e-03  1.90e-02  1.62e-02  0.000   3.0
    5    -305.8662256360302081    -6.54e-03  2.74e-04  5.19e-03  4.28e-03  0.000   1.9
    6    -305.8662444415823529    -1.88e-05  1.00e-04  2.13e-03  4.28e-03  0.000   1.3
                              *** Initializing SOSCF ***
---------------------------------------S-O-S-C-F--------------------------------------
Iteration    Energy (Eh)           Delta-E    RMSDP     MaxDP     MaxGrad    Time(sec)
--------------------------------------------------------------------------------------
    7    -305.8662799708017701    -3.55e-05  3.35e-05  5.54e-04  6.62e-04     3.1
               *** Restarting incremental Fock matrix formation ***
    8    -305.8662847309303743    -4.76e-06  3.19e-05  5.32e-04  1.42e-04     1.7
    9    -305.8662844529598033     2.78e-07  1.85e-05  3.72e-04  2.13e-04     1.3
   10    -305.8662851558823377    -7.03e-07  3.06e-06  4.90e-05  1.08e-05     1.4
   11    -305.8662851545366266     1.35e-09  1.42e-06  2.75e-05  1.09e-05     1.4
                 **** Energy Check signals convergence ****

               *****************************************************
               *                     SUCCESS                       *
               *           SCF CONVERGED AFTER  11 CYCLES          *
               *****************************************************

Recomputing exchange energy using gridx3       ... done (    0.820 sec)
Old exchange energy                            :     -9.801197025 Eh
New exchange energy                            :     -9.801214148 Eh
Exchange energy change after final integration :     -0.000017123 Eh
Total energy after final integration           :   -305.866302278 Eh
             **** ENERGY FILE WAS UPDATED (CS_PdOAc_010_opt_01.en.tmp) ****

----------------
TOTAL SCF ENERGY
----------------

Total Energy       :       -305.86630227764965 Eh           -8323.04522 eV

Components:
Nuclear Repulsion  :        225.87459166992628 Eh            6146.36011 eV
Electronic Energy  :       -531.74087682446293 Eh          -14469.40487 eV
One Electron Energy:       -862.90732447578273 Eh          -23480.90204 eV
Two Electron Energy:        331.16644765131980 Eh            9011.49718 eV
[...]
  13   2.0000      -0.505843       -13.7647 
  14   2.0000      -0.498214       -13.5571 
  15   2.0000      -0.453346       -12.3362 
  16   2.0000      -0.432802       -11.7771 
  17   2.0000      -0.427648       -11.6369 
  18   2.0000      -0.423944       -11.5361 
  19   2.0000      -0.376068       -10.2333 
  20   2.0000      -0.372816       -10.1448 
  21   2.0000      -0.302991        -8.2448 
  22   2.0000      -0.266662        -7.2563 
  23   0.0000      -0.009570        -0.2604 
  24   0.0000       0.040204         1.0940 
  25   0.0000       0.078446         2.1346 
  26   0.0000       0.104415         2.8413 
  27   0.0000       0.117525         3.1980 
  28   0.0000       0.128553         3.4981 
  29   0.0000       0.144075         3.9205 
  30   0.0000       0.159464         4.3392 
  31   0.0000       0.193804         5.2737 
  32   0.0000       0.242410         6.5963 
  33   0.0000       0.278957         7.5908 
*Only the first 10 virtual orbitals were printed.

                    ********************************
                    * MULLIKEN POPULATION ANALYSIS *
                    ********************************

-----------------------
MULLIKEN ATOMIC CHARGES
-----------------------
   0 O :   -0.284993
   1 C :    0.198250
   2 O :   -0.235473
   3 C :   -0.336139
   4 H :    0.162846
   5 H :    0.162871
   6 H :    0.156352
   7 C :    0.029703
   8 H :    0.143443
   9 C :   -0.279707
  10 H :    0.140920
  11 H :    0.141926
Sum of atomic charges:   -0.0000000

--------------------------------
MULLIKEN REDUCED ORBITAL CHARGES
--------------------------------
  0 O s       :     3.734584  s :     3.734584
      pz      :     1.507159  p :     4.533156
      px      :     1.542847
      py      :     1.483151
      dz2     :     0.002644  d :     0.017252
      dxz     :     0.003720
      dyz     :     0.003067
      dx2y2   :     0.004432
      dxy     :     0.003390

  1 C s       :     3.054114  s :     3.054114
      pz      :     0.862791  p :     2.610291
      px      :     0.829682
      py      :     0.917818
      dz2     :     0.014082  d :     0.137345
      dxz     :     0.039064
      dyz     :     0.011083
      dx2y2   :     0.036882
      dxy     :     0.036234

  2 O s       :     3.758748  s :     3.758748
      pz      :     1.533286  p :     4.457246
      px      :     1.390006
      py      :     1.533954
      dz2     :     0.002245  d :     0.019478
      dxz     :     0.004847
      dyz     :     0.000882
      dx2y2   :     0.005609
      dxy     :     0.005894

  3 C s       :     3.106619  s :     3.106619
      pz      :     1.064369  p :     3.201198
      px      :     1.096413
      py      :     1.040416
      dz2     :     0.001737  d :     0.028322
      dxz     :     0.008150
      dyz     :     0.008264
      dx2y2   :     0.005003
      dxy     :     0.005169

  4 H s       :     0.837154  s :     0.837154

  5 H s       :     0.837129  s :     0.837129

  6 H s       :     0.843648  s :     0.843648

  7 C s       :     3.138258  s :     3.138258
      pz      :     0.901720  p :     2.765600
      px      :     1.011700
      py      :     0.852180
      dz2     :     0.013988  d :     0.066440
      dxz     :     0.008315
      dyz     :     0.014870
      dx2y2   :     0.016759
      dxy     :     0.012508

  8 H s       :     0.856557  s :     0.856557

  9 C s       :     3.181756  s :     3.181756
      pz      :     1.040578  p :     3.070210
      px      :     0.999033
      py      :     1.030599
      dz2     :     0.003974  d :     0.027741
      dxz     :     0.005102
      dyz     :     0.005205
      dx2y2   :     0.006619
      dxy     :     0.006840

 10 H s       :     0.859080  s :     0.859080

 11 H s       :     0.858074  s :     0.858074



                     *******************************
                     * LOEWDIN POPULATION ANALYSIS *
                     *******************************

----------------------
LOEWDIN ATOMIC CHARGES
----------------------
   0 O :   -0.072309
   1 C :    0.083190
   2 O :   -0.164431
   3 C :   -0.363882
   4 H :    0.152393
   5 H :    0.152543
   6 H :    0.145760
   7 C :   -0.050731
   8 H :    0.134087
   9 C :   -0.293333
  10 H :    0.136653
  11 H :    0.140059

-------------------------------
LOEWDIN REDUCED ORBITAL CHARGES
-------------------------------
  0 O s       :     3.436214  s :     3.436214
      pz      :     1.517243  p :     4.602039
      px      :     1.580634
      py      :     1.504162
      dz2     :     0.004805  d :     0.034055
      dxz     :     0.007366
      dyz     :     0.006932
      dx2y2   :     0.008436
      dxy     :     0.006516

  1 C s       :     2.847045  s :     2.847045
      pz      :     0.872979  p :     2.769874
      px      :     0.963054
      py      :     0.933841
      dz2     :     0.029840  d :     0.299891
      dxz     :     0.082837
      dyz     :     0.022507
      dx2y2   :     0.085462
      dxy     :     0.079246

  2 O s       :     3.542723  s :     3.542723
      pz      :     1.529909  p :     4.588892
      px      :     1.504827
      py      :     1.554156
      dz2     :     0.004509  d :     0.032816
      dxz     :     0.006589
      dyz     :     0.001302
      dx2y2   :     0.009961
      dxy     :     0.010455

  3 C s       :     2.960849  s :     2.960849
      pz      :     1.109376  p :     3.335795
      px      :     1.134502
      py      :     1.091917
      dz2     :     0.003882  d :     0.067238
      dxz     :     0.018654
      dyz     :     0.020758
      dx2y2   :     0.011889
      dxy     :     0.012056

  4 H s       :     0.847607  s :     0.847607

  5 H s       :     0.847457  s :     0.847457

  6 H s       :     0.854240  s :     0.854240

  7 C s       :     2.912495  s :     2.912495
      pz      :     0.943033  p :     2.988933
      px      :     1.136193
      py      :     0.909706
      dz2     :     0.029210  d :     0.149303
      dxz     :     0.020054
      dyz     :     0.033346
      dx2y2   :     0.037397
      dxy     :     0.029296

  8 H s       :     0.865913  s :     0.865913

  9 C s       :     2.965706  s :     2.965706
      pz      :     1.076705  p :     3.261178
      px      :     1.103771
      py      :     1.080702
      dz2     :     0.008304  d :     0.066449
      dxz     :     0.013001
      dyz     :     0.011049
      dx2y2   :     0.018041
      dxy     :     0.016054

 10 H s       :     0.863347  s :     0.863347

 11 H s       :     0.859941  s :     0.859941



                      *****************************
                      * MAYER POPULATION ANALYSIS *
                      *****************************

  NA   - Mulliken gross atomic population
  ZA   - Total nuclear charge
  QA   - Mulliken gross atomic charge
  VA   - Mayer's total valence
  BVA  - Mayer's bonded valence
  FA   - Mayer's free valence

  ATOM       NA         ZA         QA         VA         BVA        FA
  0 O      8.2850     8.0000    -0.2850     2.1725     2.1725    -0.0000
  1 C      5.8017     6.0000     0.1983     4.3128     4.3128     0.0000
  2 O      8.2355     8.0000    -0.2355     2.2585     2.2585     0.0000
  3 C      6.3361     6.0000    -0.3361     3.8640     3.8640    -0.0000
  4 H      0.8372     1.0000     0.1628     0.9510     0.9510     0.0000
  5 H      0.8371     1.0000     0.1629     0.9509     0.9509    -0.0000
  6 H      0.8436     1.0000     0.1564     0.9630     0.9630     0.0000
  7 C      5.9703     6.0000     0.0297     3.9902     3.9902    -0.0000
  8 H      0.8566     1.0000     0.1434     0.9808     0.9808     0.0000
  9 C      6.2797     6.0000    -0.2797     3.8919     3.8919     0.0000
 10 H      0.8591     1.0000     0.1409     0.9525     0.9525    -0.0000
 11 H      0.8581     1.0000     0.1419     0.9448     0.9448    -0.0000

  Mayer bond orders larger than 0.100000
B(  0-O ,  1-C ) :   1.0726 B(  0-O ,  7-C ) :   0.9935 B(  1-C ,  2-O ) :   2.0754 
B(  1-C ,  3-C ) :   1.0728 B(  3-C ,  4-H ) :   0.9280 B(  3-C ,  5-H ) :   0.9279 
B(  3-C ,  6-H ) :   0.9422 B(  7-C ,  8-H ) :   0.9216 B(  7-C ,  9-C ) :   1.9909 
B(  9-C , 10-H ) :   0.9224 B(  9-C , 11-H ) :   0.9258 

-------
TIMINGS
-------

Total SCF time: 0 days 0 hours 0 min 12 sec 

Total time                  ....      12.450 sec
Sum of individual times     ....      11.998 sec  ( 96.4%)

SCF preparation             ....       0.683 sec  (  5.5%)
Fock matrix formation       ....       8.975 sec  ( 72.1%)
  Startup                   ....       0.396 sec  (  4.4% of F)
  Split-RI-J                ....       1.866 sec  ( 20.8% of F)
  Chain of spheres X        ....       4.494 sec  ( 50.1% of F)
  XC integration            ....       1.087 sec  ( 12.1% of F)
    XC Preparation          ....       0.000 sec  (  0.0% of XC)
    Basis function eval.    ....       0.244 sec  ( 22.5% of XC)
    Density eval.           ....       0.098 sec  (  9.0% of XC)
    XC-Functional eval.     ....       0.076 sec  (  7.0% of XC)
    XC-Potential eval.      ....       0.092 sec  (  8.5% of XC)
Diagonalization             ....       0.000 sec  (  0.0%)
Density matrix formation    ....       0.451 sec  (  3.6%)
Total Energy calculation    ....       0.938 sec  (  7.5%)
Population analysis         ....       0.271 sec  (  2.2%)
Orbital Transformation      ....       0.109 sec  (  0.9%)
Orbital Orthonormalization  ....       0.000 sec  (  0.0%)
DIIS solution               ....       0.121 sec  (  1.0%)
SOSCF solution              ....       0.450 sec  (  3.6%)
Finished LeanSCF after  12.7 sec

Maximum memory used throughout the entire LEANSCF-calculation: 12.1 MB


-------------------------------------------------------------------------------
                          DFT DISPERSION CORRECTION                            
                                                                               
                              DFTD3 V3.1  Rev 1                                
                          USING Becke-Johnson damping                          
-------------------------------------------------------------------------------
The PBE0 functional is recognized
Active option DFTDOPT                   ...         4   

molecular C6(AA) [au] = 1339.656859 


            DFT-D V3
 parameters
 s6 scaling factor         :     1.0000 
 a1 scaling factor         :     0.4145 
 s8 scaling factor         :     1.2177 
 a2 scaling factor         :     4.8593 
 ad hoc parameters k1-k3   :    16.0000     1.3333    -4.0000 

 Edisp/kcal,au: -4.233804805940  -0.006746996706 
 E6   /kcal   :  -2.717530580 
 E8   /kcal   :  -1.516274226 
 % E8         :  35.813512806 

-------------------------   ----------------
Dispersion correction           -0.006746997
-------------------------   ----------------


-------------------------   --------------------
FINAL SINGLE POINT ENERGY      -305.890265394857
-------------------------   --------------------

                                *** OPTIMIZATION RUN DONE ***



           ************************************************************
           *        Program running with 4 parallel MPI-processes     *
           *              working on a common directory               *
           ************************************************************

------------------------------------------------------------------------------
                              ORCA PROPERTY CALCULATIONS
------------------------------------------------------------------------------

GBWName                                 ... CS_PdOAc_010_opt_01.gbw
Number of atoms                         ...     12
Number of basis functions               ...     96
Max core memory                         ...   3500 MB

Electric properties:
Dipole moment                           ... YES
Quadrupole moment                       ...  NO
Static polarizability (Dipole/Dipole)   ...  NO
Static polarizability (Dipole/Quad.)    ...  NO
Static polarizability (Quad./Quad.)     ...  NO
Static polarizability (Velocity)        ...  NO

Atomic electric properties:
Dipole moment                           ...  NO
Quadrupole moment                       ...  NO
Static polarizability                   ...  NO

Choice of electric origin               ... Center of mass
Position of electric origin             ...    -1.062745    -0.455072    -0.893569

General magnetic properties:
Magnetizability                         ...  NO

EPR properties:
g-Tensor (aka g-matrix)                 ...  NO
Zero-Field splitting spin-orbit         ...  NO
Zero-field splitting spin-spin          ...  NO
Hyperfine couplings                     ...  NO (   0 nuclei)
Quadrupole couplings                    ...  NO (   0 nuclei)
Contact density                         ...  NO (   0 nuclei)

NMR properties:
Chemical shifts                         ...  NO (   0 nuclei)
Spin-rotation constants                 ...  NO (   0 nuclei)
Spin-spin couplings                     ...  NO (   0 nuclei,    0 pairs)

Choice of magnetic origin               ... GIAO
Position of magnetic origin             ...     0.000000     0.000000     0.000000

Properties with geometric perturbations:
SCF Hessian                             ...  NO
IR spectrum                             ...  NO
VCD spectrum                            ...  NO
X-ray spectroscopy properties:
SCF XES/XAS/RIXS spectra                ...  NO


-------------
DIPOLE MOMENT
-------------

Method             : SCF
Type of density    : Electron Density
Multiplicity       :   1
Irrep              :   0
Energy             :  -305.8835183981512955 Eh
Relativity type    : 
Basis              : AO
                                X                 Y                 Z
Electronic contribution:     -2.213196782       0.792964041      -0.214400201
Nuclear contribution   :      2.775033881      -1.104516922       0.359780835
                        -----------------------------------------
Total Dipole Moment    :      0.561837099      -0.311552881       0.145380633
                        -----------------------------------------
Magnitude (a.u.)       :      0.658681753
Magnitude (Debye)      :      1.674235963



--------------------
Rotational spectrum 
--------------------
 
Rotational constants in cm-1:             0.314546             0.074915             0.061203 
Rotational constants in MHz :          9429.842278          2245.903647          1834.808631 

Dipole components along the rotational axes: 
x,y,z [a.u.] :    -0.005520     0.658658     0.000745 
x,y,z [Debye]:    -0.014031     1.674176     0.001895 

 

Dipole moment calculation done in   2.0 sec 

Maximum memory used throughout the entire PROP-calculation: 6.5 MB

--------------------------------
SUGGESTED CITATIONS FOR THIS RUN
--------------------------------

Below you find a list of papers that are relevant to this ORCA run
We neither can nor want to force you to cite these papers, but we appreciate if you do
You receive ORCA, which is the product of decades of hard work by many enthusiastic individuals, for free
The only thing we kindly ask in return is that you cite our papers,
We deeply appreciate it, if you show your appreciation for ORCA by not just citing the generic ORCA reference.

Please note that relegating all ORCA citations to the supporting information does *not* help us.
SI sections are not indexed - citations you put there will not count into any citation statistics
But we need these citations in order to attract the funding resources that allow us to do what we are doing

Therefore, if you are a happy ORCA user, please consider citing a few of the papers listed below in the main body of your paper

In addition to the list printed below, the program has created the file CS_PdOAc_010_opt_01.bibtex that contains the list in bibtex format
You can import this file easily into all common literature databanks and citation aid programs


List of essential papers. We consider these as the minimum necessary citations

  1. Neese,F.
     Software update: the ORCA program system, version 5.0
     WIRES Comput. Molec. Sci., 2022 12(1)e1606
     doi.org/10.1002/wcms.1606

List of papers to cite with high priority. The work reported in these papers was absolutely
necessary for this run to complete.
Our perspective: the developers of density functionals and basis sets usually get cited in chemistry papers
Good! But without the algorithms to do something with them, the functionals or basis sets would not do anything.
Hence, in our opinion, the algorithm design and method developments papers are equally worthy of getting cited

  1. Neese,F.
     An improvement of the resolution of the identity approximation for the formation of the Coulomb matrix
     J. Comp. Chem., 2003 24(14)1740-1747
     doi.org/10.1002/jcc.10318
  2. Neese,F.; Wennmohs,F.; Hansen,A.; Becker,U.
     Efficient, approximate and parallel Hartree-Fock and hybrid DFT calculations. A 'chain-of-spheres' algorithm for the Hartree-Fock exchange
     Chem. Phys., 2009 356(1-3)98-109
     doi.org/10.1016/j.chemphys.2008.10.036
  3. Helmich-Paris,B.; de Souza,B.; Neese,F.; Izsák,R.
     An improved chain of spheres for exchange algorithm
     J. Chem. Phys., 2021 155 104109
     doi.org/doi: 10.1063/5.0058766.
  4. Neese,F.
     The SHARK Integral Generation and Digestion System
     J. Comp. Chem., 2022  1-16
     doi.org/10.1002/jcc.26942
  5. Grimme,S.; Antony,J.; Ehrlich,S.; Krieg,H.
     A consistent and accurate ab initio parametrization of density functional dispersion correction (DFT-D) for the 94 elements H-Pu
     J. Chem. Phys., 2010 132 154104-XXXX
     doi.org/10.1063/1.3382344
  6. Grimme,S.; Ehrlich,S.; Goerigk,L.
     Effect of the damping function in dispersion corrected density functional theory
     J. Comput. Chem., 2011 32(7)1456-1465
     doi.org/10.1002/jcc.21759

List of suggested additional citations. These are papers that are important in the 'surrounding' of 
of this run, or papers that preceded the highly important papers. If you like your results we are grateful for a citation.

  1. Izsak,R.; Neese,F.
     An overlap fitted chain of spheres exchange method
     J. Chem. Phys., 2011 135 144105
     doi.org/10.1063/1.3646921
  2. Izsak,R.; Hansen,A.; Neese,F.
     The resolution of identity and chain of spheres approximations for the LPNO-CCSD singles Fock term
     Molec. Phys., 2012 110 2413-2417
     doi.org/10.1080/00268976.2012.687466
  3. Neese,F.
     The ORCA program system
     WIRES Comput. Molec. Sci., 2012 2(1)73-78
     doi.org/10.1002/wcms.81
  4. Izsak,R.; Neese,F.; Klopper,W.
     Robust fitting techniques in the chain of spheres approximation to the Fock exchange: The role of the complementary space
     J. Chem. Phys., 2013 139 
     doi.org/10.1063/1.4819264
  5. Neese,F.
     Software update: the ORCA program system, version 4.0
     WIRES Comput. Molec. Sci., 2018 8(1)1-6
     doi.org/10.1002/wcms.1327
  6. Neese,F.; Wennmohs,F.; Becker,U.; Riplinger,C.
     The ORCA quantum chemistry program package
     J. Chem. Phys., 2020 152 Art. No. L224108
     doi.org/10.1063/5.0004608

List of optional additional citations

  1. Neese,F.
     Approximate second-order SCF convergence for spin unrestricted wavefunctions
     Chem. Phys. Lett., 2000 325(1-3)93-98
     doi.org/10.1016/s0009-2614(00)00662-x

Timings for individual modules:

Sum of individual times          ...      602.809 sec (=  10.047 min)
Startup calculation              ...       55.098 sec (=   0.918 min)   9.1 %
SCF iterations                   ...      450.108 sec (=   7.502 min)  74.7 %
Property calculations            ...        4.349 sec (=   0.072 min)   0.7 %
SCF Gradient evaluation          ...       92.276 sec (=   1.538 min)  15.3 %
Geometry relaxation              ...        0.977 sec (=   0.016 min)   0.2 %
                             ****ORCA TERMINATED NORMALLY****
TOTAL RUN TIME: 0 days 0 hours 10 minutes 46 seconds 39 msec
