
                                 *****************
                                 * O   R   C   A *
                                 *****************

                                            #,                                       
                                            ###                                      
                                            ####                                     
                                            #####                                    
                                            ######                                   
                                           ########,                                 
                                     ,,################,,,,,                         
                               ,,#################################,,                 
                          ,,##########################################,,             
                       ,#########################################, ''#####,          
                    ,#############################################,,   '####,        
                  ,##################################################,,,,####,       
                ,###########''''           ''''###############################       
              ,#####''   ,,,,##########,,,,          '''####'''          '####       
            ,##' ,,,,###########################,,,                        '##       
           ' ,,###''''                  '''############,,,                           
         ,,##''                                '''############,,,,        ,,,,,,###''
      ,#''                                            '''#######################'''  
     '                                                          ''''####''''         
             ,#######,   #######,   ,#######,      ##                                
            ,#'     '#,  ##    ##  ,#'     '#,    #''#        ,####,   ,####,        
            ##       ##  ##   ,#'  ##            #'  '#       #'       #'  '#        
            ##       ##  #######   ##           ,######,      #####,   #    #        
            '#,     ,#'  ##    ##  '#,     ,#' ,#      #,     #,   #   #,  ,#        
             '#######'   ##     ##  '#######'  #'      '#     '####' # '####'        



                #########################################################
                #                        -***-                          #
                #          Department of theory and spectroscopy        #
                #                                                       #
                #                      Frank Neese                      #
                #                                                       #
                #     Directorship, Architecture, Infrastructure        #
                #                    SHARK, DRIVERS                     #
                #        Core code/Algorithms in most modules           #
                #                                                       #
                #        Max Planck Institute fuer Kohlenforschung      #
                #                Kaiser Wilhelm Platz 1                 #
                #                 D-45470 Muelheim/Ruhr                 #
                #                      Germany                          #
                #                                                       #
                #                  All rights reserved                  #
                #                        -***-                          #
                #########################################################


                         Program Version 6.0.0  -   RELEASE  -


 With contributions from (in alphabetic order):
   Daniel Aravena         : Magnetic Suceptibility
   Michael Atanasov       : Ab Initio Ligand Field Theory (pilot matlab implementation)
   Alexander A. Auer      : GIAO ZORA, VPT2 properties, NMR spectrum
   Ute Becker             : All parallelization in ORCA, NUMFREQ, NUMCALC
   Giovanni Bistoni       : ED, misc. LED, open-shell LED, HFLD
   Martin Brehm           : Molecular dynamics
   Dmytro Bykov           : pre 5.0 version of the SCF Hessian
   Marcos Casanova-Páez   : Triplet and SCS-CIS(D). UHF-(DLPNO)-IP/EA/STEOM-CCSD. UHF-CVS-IP/STEOM-CCSD
   Vijay G. Chilkuri      : MRCI spin determinant printing, contributions to CSF-ICE
   Pauline Colinet        : FMM embedding
   Dipayan Datta          : RHF DLPNO-CCSD density
   Achintya Kumar Dutta   : EOM-CC, STEOM-CC
   Nicolas Foglia         : Exact transition moments, OPA infrastructure, MCD improvements
   Dmitry Ganyushin       : Spin-Orbit,Spin-Spin,Magnetic field MRCI
   Miquel Garcia          : C-PCM and meta-GGA Hessian, CCSD/C-PCM, Gaussian charge scheme
   Tiago L. C. Gouveia    : GS-ROHF, GS-ROCIS
   Yang Guo               : DLPNO-NEVPT2, F12-NEVPT2, CIM, IAO-localization
   Andreas Hansen         : Spin unrestricted coupled pair/coupled cluster methods
   Ingolf Harden          : AUTO-CI MPn and infrastructure 
   Benjamin Helmich-Paris : MC-RPA, TRAH-(SCF,CASSCF), AVAS, COSX integrals, SCF dyn. polar.
   Lee Huntington         : MR-EOM, pCC
   Robert Izsak           : Overlap fitted RIJCOSX, COSX-SCS-MP3, EOM
   Riya Kayal             : Wick's Theorem for AUTO-CI, AUTO-CI UHF-CCSDT
   Emily Kempfer          : AUTO-CI, RHF CISDT and CCSDT
   Christian Kollmar      : KDIIS, OOCD, Brueckner-CCSD(T), CCSD density, CASPT2, CASPT2-K, improved NEVPT2
   Axel Koslowski         : Symmetry handling
   Simone Kossmann        : Meta GGA functionals, TD-DFT gradient, OOMP2, (MP2 Hessian; deprecated post 5.0)
   Lucas Lang             : DCDCAS
   Marvin Lechner         : AUTO-CI (C++ implementation), FIC-MRCC
   Spencer Leger          : CASSCF response
   Dagmar Lenk            : GEPOL surface, SMD, ORCA-2-JSON
   Dimitrios Liakos       : Extrapolation schemes; Compound Job, initial MDCI parallelization
   Dimitrios Manganas     : Further ROCIS development; embedding schemes. LFT, Crystal Embedding
   Dimitrios Pantazis     : SARC Basis sets
   Anastasios Papadopoulos: AUTO-CI, single reference methods and gradients
   Taras Petrenko         : pre 6.0 DFT Hessian and TD-DFT gradient, (ASA, deprecated), ECA, 1-Electron XAS/XES, NRVS
   Peter Pinski           : DLPNO-MP2, DLPNO-MP2 Gradient
   Christoph Reimann      : Effective Core Potentials
   Marius Retegan         : Local ZFS, SOC
   Christoph Riplinger    : Optimizer, TS searches, QM/MM, DLPNO-CCSD(T), (RO)-DLPNO pert. Triples
   Michael Roemelt        : Original ROCIS implementation
   Masaaki Saitow         : Open-shell DLPNO-CCSD energy and density
   Barbara Sandhoefer     : DKH picture change effects
   Kantharuban Sivalingam : CASSCF convergence/infrastructure, NEVPT2 and variants, FIC-MRCI
   Bernardo de Souza      : ESD, SOC TD-DFT
   Georgi Stoychev        : AutoAux, RI-MP2 NMR, DLPNO-MP2 response, X2C
   Van Anh Tran           : RI-MP2 g-tensors
   Willem Van den Heuvel  : Paramagnetic NMR
   Zikuan Wang            : NOTCH, Electric field optimization 
   Frank Wennmohs         : Technical directorship and infrastructure
   Hang Xu                : AUTO-CI-Response properties 


 We gratefully acknowledge several colleagues who have allowed us to
 interface, adapt or use parts of their codes:
   Stefan Grimme, W. Hujo, H. Kruse, P. Pracht,  : VdW corrections, initial TS optimization,
                  C. Bannwarth, S. Ehlert,         DFT functionals, gCP, sTDA/sTD-DF
                  L. Wittmann, M. Mueller
   Ed Valeev, F. Pavosevic, A. Kumar             : LibInt (2-el integral package), F12 methods
   Garnet Chan, S. Sharma, J. Yang, R. Olivares  : DMRG
   Ulf Ekstrom                                   : XCFun DFT Library
   Mihaly Kallay                                 : mrcc  (arbitrary order and MRCC methods)
   Frank Weinhold                                : gennbo (NPA and NBO analysis)
   Simon Mueller                                 : openCOSMO-RS
   Christopher J. Cramer and Donald G. Truhlar   : smd solvation model
   Lars Goerigk                                  : TD-DFT with DH, B97 family of functionals
   V. Asgeirsson, H. Jonsson                     : NEB implementation
   FAccTs GmbH                                   : IRC, NEB, NEB-TS, DLPNO-Multilevel, CI-OPT
                                                   MM, QMMM, 2- and 3-layer-ONIOM, Crystal-QMMM,
                                                   LR-CPCM, SF, NACMEs, symmetry and pop. for TD-DFT,
                                                   nearIR, NL-DFT gradient (VV10), updates on ESD,
                                                   ML-optimized integration grids, MBIS, APM,
                                                   GOAT, DOCKER, SOLVATOR, interface openCOSMO-RS
   S Lehtola, MJT Oliveira, MAL Marques          : LibXC Library
   Liviu Ungur et al                             : ANISO software


 Your calculation uses the libint2 library for the computation of 2-el integrals
 For citations please refer to: http://libint.valeyev.net

 Your ORCA version has been built with support for libXC version: 6.2.2
 For citations please refer to: https://libxc.gitlab.io

 This ORCA versions uses:
   CBLAS   interface :  Fast vector & matrix operations
   LAPACKE interface :  Fast linear algebra routines
   SCALAPACK package :  Parallel linear algebra routines
   Shared memory     :  Shared parallel matrices
   BLAS/LAPACK       :  OpenBLAS 0.3.27  USE64BITINT DYNAMIC_ARCH NO_AFFINITY Sandybridge SINGLE_THREADED
        Core in use  :  Sandybridge
   Copyright (c) 2011-2014, The OpenBLAS Project


NOTE: MaxCore=3500 MB was set to SCF,MP2,MDCI,CIPSI,MRCI and CIS
      => If you want to overwrite this, your respective input block should be placed after the MaxCore statement
Your calculation utilizes the atom-pairwise dispersion correction
with the Becke-Johnson damping scheme (D3BJ)


Warning: RI is on but no J-basis has been assigned. Assigning Def2/J (nothing to worry about!)
================================================================================

cite the ECPs for Pd [Def2-ECP] as follows:
Ce-Yb(ecp-28): M. Dolg, H. Stoll, H.Preuss, J. Chem. Phys., 1989, 90, 1730-1734.
Y-Cd(ecp-28), Hf-Hg(ecp-46): D. Andrae,U. Haeussermann, M. Dolg, H. Stoll, H. Preuss, Theor. Chim. Acta, 1990, 77, 123-141.
In-Sb(ecp-28), Tl-Bi(ecp-46): B. Metz, H. Stoll, M. Dolg, J. Chem. Phys., 2000, 113, 2563-2569.
Te-Xe(ecp-28), Po-Rn(ecp-46): K. A. Peterson, D. Figgen, E. Goll, H. Stoll, M. Dolg, J. Chem. Phys., 2003, 119, 11113-11123.
Rb(ecp-28), Cs(ecp-46): T. Leininger, A. Nicklass, W. Kuechle, H. Stoll, M. Dolg, A. Bergner, Chem. Phys. Lett., 1996, 255, 274-280.
Sr(ecp-28), Ba(ecp-46): M. Kaupp, P. V. Schleyer, H. Stoll and H. Preuss, J. Chem. Phys., 1991, 94, 1360-1366.
La(ecp-46): M. Dolg, H. Stoll, A. Savin, H. Preuss, Theor. Chim. Acta, 1989, 75, 173-194.
Lu(ecp-28): X. Cao, M. Dolg, J. Chem. Phys., 2001, 115, 7348-7355.

ECP parameters for Pd [Def2-ECP] have been obtained from:
TURBOMOLE (7.0.2)

----- Orbital basis set information -----
Your calculation utilizes the basis: def2-SV(P)
   F. Weigend and R. Ahlrichs, Phys. Chem. Chem. Phys. 7, 3297 (2005).

----- AuxJ basis set information -----
Your calculation utilizes the auxiliary basis: def2/J
   F. Weigend, Phys. Chem. Chem. Phys. 8, 1057 (2006).

================================================================================
                                        WARNINGS
                       Please study these warnings very carefully!
================================================================================


================================================================================
                                       INPUT FILE
================================================================================
NAME = CS_PdOAc_004_freq_01.inp
|  1> !PBE0 def2-SV(p) freq d3 TightSCF SlowConv RIJCOSX defgrid2
|  2> 
|  3> %pal
|  4> nprocs 16
|  5> nprocs_group 2
|  6> end
|  7> 
|  8> %scf
|  9> MaxIter 1500
| 10> end
| 11> 
| 12> %maxcore 3500
| 13> 
| 14>  
| 15> 
| 16> * xyz -1 1
| 17>   Pd         -0.76429632434366      1.66567338624455      0.04942316659147
| 18>   O          -0.54716947060571      1.54148030597348     -2.01800908936646
| 19>   O           1.31684830365668      0.27788761095692     -2.16761017598424
| 20>   C           0.30327267879229      0.87949634801309     -2.64026406041844
| 21>   C           0.15587637409194      0.79195283629985     -4.14221931204929
| 22>   H          -0.88757308175927      0.97987023385556     -4.43465601896417
| 23>   H           0.79801835125327      1.56418980607428     -4.60108244289126
| 24>   H           0.49542303517620     -0.19031726136099     -4.50541329526831
| 25>   O          -0.24162300588823      3.59580496372204      0.02806810020705
| 26>   C          -1.02605977135007      4.50311960050509      0.51202065159336
| 27>   O          -2.18110530106810      4.37435216722370      0.87314845202799
| 28>   C          -0.32035413571976      5.85328354289268      0.63549004276493
| 29>   H           0.44641785813078      5.98322522940656     -0.14509445801633
| 30>   H           0.18146923538494      5.89834915831122      1.61963618313334
| 31>   H          -1.05996937610071      6.66860983464416      0.59244460985664
| 32>   O           2.89534540153053      2.39269286838153     -0.39875630620095
| 33>   Pd          1.90253368891186      0.59026168542819     -0.25787762194958
| 34>   O           2.65874232134959      1.38999178270393      1.51308160718110
| 35>   C           2.94048016425399      2.44264308726700      0.86877525163275
| 36>   H           3.93676106684813      4.33585097127999      0.99671118146681
| 37>   H           2.25413846696008      4.27292890005140      1.60112882854366
| 38>   C           3.21631664066827      3.73002054551180      1.56748754379788
| 39>   H           3.56641384709940      3.55076542115835      2.59482084946439
| 40>   O           1.01535205414665     -1.13931495313927      0.28155375233752
| 41>   C          -0.24702094981116     -1.25881504499723      0.31103467348182
| 42>   O          -1.10132354579148     -0.37853953809943      0.09410958807519
| 43>   C          -0.76837951910972     -2.62980202288372      0.67213696199915
| 44>   H          -1.59602847132784     -2.89677407695987     -0.00382463307110
| 45>   H           0.02859546537939     -3.38647412086625      0.63300281659691
| 46>   H          -1.18317161588818     -2.57931861827854      1.69357055355841
| 47>   O          -0.95250421444721      1.82521092761180      2.01668194242510
| 48>   C          -2.13706377388344      1.64913375527429      2.52125006452552
| 49>   O          -3.09790697559232      1.14053095910839      1.97811346216306
| 50>   C          -2.22431845024762      2.20938688261431      3.93433466189165
| 51>   H          -2.33958066142918      3.30410496113110      3.84382153129074
| 52>   H          -3.10226346404672      1.79471056398513      4.45411656901479
| 53>   H          -1.30218479922360      2.01114823595462      4.50490055855883
| 54> *
| 55> 
| 56>                          ****END OF INPUT****
================================================================================

                       ****************************
                       * Single Point Calculation *
                       ****************************

---------------------------------
CARTESIAN COORDINATES (ANGSTROEM)
---------------------------------
  Pd    -0.764296    1.665673    0.049423
  O     -0.547169    1.541480   -2.018009
  O      1.316848    0.277888   -2.167610
  C      0.303273    0.879496   -2.640264
  C      0.155876    0.791953   -4.142219
  H     -0.887573    0.979870   -4.434656
  H      0.798018    1.564190   -4.601082
  H      0.495423   -0.190317   -4.505413
  O     -0.241623    3.595805    0.028068
  C     -1.026060    4.503120    0.512021
  O     -2.181105    4.374352    0.873148
  C     -0.320354    5.853284    0.635490
  H      0.446418    5.983225   -0.145094
  H      0.181469    5.898349    1.619636
  H     -1.059969    6.668610    0.592445
  O      2.895345    2.392693   -0.398756
  Pd     1.902534    0.590262   -0.257878
  O      2.658742    1.389992    1.513082
  C      2.940480    2.442643    0.868775
  H      3.936761    4.335851    0.996711
  H      2.254138    4.272929    1.601129
  C      3.216317    3.730021    1.567488
  H      3.566414    3.550765    2.594821
  O      1.015352   -1.139315    0.281554
  C     -0.247021   -1.258815    0.311035
  O     -1.101324   -0.378540    0.094110
  C     -0.768380   -2.629802    0.672137
  H     -1.596028   -2.896774   -0.003825
  H      0.028595   -3.386474    0.633003
  H     -1.183172   -2.579319    1.693571
  O     -0.952504    1.825211    2.016682
  C     -2.137064    1.649134    2.521250
  O     -3.097907    1.140531    1.978113
  C     -2.224318    2.209387    3.934335
  H     -2.339581    3.304105    3.843822
  H     -3.102263    1.794711    4.454117
  H     -1.302185    2.011148    4.504901

----------------------------
CARTESIAN COORDINATES (A.U.)
----------------------------
  NO LB      ZA    FRAG     MASS         X           Y           Z
   0 Pd   18.0000*   0   106.400   -1.444311    3.147667    0.093396
   1 O     8.0000    0    15.999   -1.034000    2.912976   -3.813485
   2 O     8.0000    0    15.999    2.488483    0.525131   -4.096190
   3 C     6.0000    0    12.011    0.573102    1.662007   -4.989376
   4 C     6.0000    0    12.011    0.294564    1.496574   -7.827660
   5 H     1.0000    0     1.008   -1.677270    1.851686   -8.380285
   6 H     1.0000    0     1.008    1.508036    2.955890   -8.694786
   7 H     1.0000    0     1.008    0.936214   -0.359648   -8.513997
   8 O     8.0000    0    15.999   -0.456601    6.795087    0.053041
   9 C     6.0000    0    12.011   -1.938972    8.509663    0.967579
  10 O     8.0000    0    15.999   -4.121692    8.266328    1.650011
  11 C     6.0000    0    12.011   -0.605382   11.061103    1.200902
  12 H     1.0000    0     1.008    0.843607   11.306657   -0.274189
  13 H     1.0000    0     1.008    0.342927   11.146265    3.060669
  14 H     1.0000    0     1.008   -2.003052   12.601846    1.119558
  15 O     8.0000    0    15.999    5.471410    4.521534   -0.753540
  16 Pd   18.0000*   0   106.400    3.595268    1.115433   -0.487318
  17 O     8.0000    0    15.999    5.024295    2.626704    2.859310
  18 C     6.0000    0    12.011    5.556702    4.615926    1.641747
  19 H     1.0000    0     1.008    7.439400    8.193571    1.883511
  20 H     1.0000    0     1.008    4.259704    8.074665    3.025695
  21 C     6.0000    0    12.011    6.077958    7.048717    2.962122
  22 H     1.0000    0     1.008    6.739545    6.709974    4.903501
  23 O     8.0000    0    15.999    1.918737   -2.152993    0.532059
  24 C     6.0000    0    12.011   -0.466802   -2.378816    0.587770
  25 O     8.0000    0    15.999   -2.081200   -0.715336    0.177841
  26 C     6.0000    0    12.011   -1.452027   -4.969606    1.270155
  27 H     1.0000    0     1.008   -3.016057   -5.474110   -0.007228
  28 H     1.0000    0     1.008    0.054038   -6.399509    1.196202
  29 H     1.0000    0     1.008   -2.235870   -4.874206    3.200385
  30 O     8.0000    0    15.999   -1.799972    3.449149    3.810977
  31 C     6.0000    0    12.011   -4.038465    3.116411    4.764472
  32 O     8.0000    0    15.999   -5.854196    2.155291    3.738093
  33 C     6.0000    0    12.011   -4.203353    4.175136    7.434815
  34 H     1.0000    0     1.008   -4.421167    6.243853    7.263770
  35 H     1.0000    0     1.008   -5.862428    3.391511    8.417060
  36 H     1.0000    0     1.008   -2.460773    3.800519    8.513028
* core charge reduced due to ECP

--------------------------------
INTERNAL COORDINATES (ANGSTROEM)
--------------------------------
 Pd     0   0   0     0.000000000000     0.00000000     0.00000000
 O      1   0   0     2.082509093564     0.00000000     0.00000000
 O      2   1   0     2.256902578044   100.67904736     0.00000000
 C      2   1   3     1.244458058381   126.82515579     4.36773378
 C      4   2   1     1.511707350972   117.44960538   171.95081405
 H      5   4   2     1.099826778530   110.29102198   336.99458098
 H      5   4   2     1.104197278191   108.40179139    95.97606263
 H      5   4   2     1.100934307422   110.44847016   214.00703982
 O      1   2   3     1.999762821702    91.12923047   109.01780771
 C      9   1   2     1.293356471017   120.96899122   122.95999769
 O     10   9   1     1.217014591466   127.76591626   350.48064257
 C     10   9   1     1.528465834110   111.70814421   169.02699002
 H     12  10   9     1.101878530196   111.60696084    30.97523948
 H     12  10   9     1.105622553624   108.51009450   272.01947162
 H     12  10   9     1.101653564021   109.91498525   154.09853749
 O      3   2   1     3.176932227397    90.04372452   303.38874539
 Pd     3   2   1     2.021802008319    95.17174405   342.51206337
 O     17   3   2     2.085117818135   165.14375373   283.27356294
 C     18  17   3     1.265931143832    88.12967003     0.18165589
 H     19  18  17     2.143170392457   143.86365482   187.41960250
 H     20  19  18     1.788993765445    63.37657985   275.29038179
 C     20  19  18     1.100843463802    40.58656140   311.42213039
 H     22  20  19     1.100051896271   111.44522915   123.86092875
 O     17   3   2     2.017303350839    89.58256776    95.74715032
 C     24  17   3     1.268359175386   121.64831286   288.99663692
 O     25  24  17     1.245702366628   127.72974450   356.33193933
 C     25  24  17     1.510567745613   115.75848553   177.28098372
 H     27  25  24     1.101454013464   109.42808413   223.91088394
 H     27  25  24     1.099660525391   111.46096629   346.88314971
 H     27  25  24     1.103597589548   108.02659219   107.44864377
 O      1   2   3     1.982670302420   178.69177377   100.17818879
 C     31   1   9     1.299528187578   117.44377449   116.28439653
 O     32  31   1     1.215275208076   127.14745622    15.88103095
 C     32  31   1     1.522598116561   111.26760705   197.50230497
 H     34  32  31     1.104484348268   107.13530195    78.47938078
 H     34  32  31     1.101325168812   110.19107228   197.15515719
 H     34  32  31     1.102349524343   111.48477418   320.59557447

---------------------------
INTERNAL COORDINATES (A.U.)
---------------------------
 Pd     0   0   0     0.000000000000     0.00000000     0.00000000
 O      1   0   0     3.935371858237     0.00000000     0.00000000
 O      2   1   0     4.264927783444   100.67904736     0.00000000
 C      2   1   3     2.351684915491   126.82515579     4.36773378
 C      4   2   1     2.856712887973   117.44960538   171.95081405
 H      5   4   2     2.078371406174   110.29102198   336.99458098
 H      5   4   2     2.086630453603   108.40179139    95.97606263
 H      5   4   2     2.080464332466   110.44847016   214.00703982
 O      1   2   3     3.779004065814    91.12923047   109.01780771
 C      9   1   2     2.444089523758   120.96899122   122.95999769
 O     10   9   1     2.299824278858   127.76591626   350.48064257
 C     10   9   1     2.888381831523   111.70814421   169.02699002
 H     12  10   9     2.082248654919   111.60696084    30.97523948
 H     12  10   9     2.089323833836   108.51009450   272.01947162
 H     12  10   9     2.081823530457   109.91498525   154.09853749
 O      3   2   1     6.003531855809    90.04372452   303.38874539
 Pd     3   2   1     3.820652092735    95.17174405   342.51206337
 O     17   3   2     3.940301633235   165.14375373   283.27356294
 C     18  17   3     2.392263166243    88.12967003     0.18165589
 H     19  18  17     4.050005100073   143.86365482   187.41960250
 H     20  19  18     3.380708271983    63.37657985   275.29038179
 C     20  19  18     2.080292662903    40.58656140   311.42213039
 H     22  20  19     2.078796817053   111.44522915   123.86092875
 O     17   3   2     3.812150862128    89.58256776    95.74715032
 C     24  17   3     2.396851480927   121.64831286   288.99663692
 O     25  24  17     2.354036317304   127.72974450   356.33193933
 C     25  24  17     2.854559345944   115.75848553   177.28098372
 H     27  25  24     2.081446434555   109.42808413   223.91088394
 H     27  25  24     2.078057233273   111.46096629   346.88314971
 H     27  25  24     2.085497206301   108.02659219   107.44864377
 O      1   2   3     3.746703885432   178.69177377   100.17818879
 C     31   1   9     2.455752377834   117.44377449   116.28439653
 O     32  31   1     2.296537320608   127.14745622    15.88103095
 C     32  31   1     2.877293452325   111.26760705   197.50230497
 H     34  32  31     2.087172937429   107.13530195    78.47938078
 H     34  32  31     2.081202953450   110.19107228   197.15515719
 H     34  32  31     2.083138704867   111.48477418   320.59557447

---------------------
BASIS SET INFORMATION
---------------------
There are 4 groups of distinct atoms

 Group   1 Type Pd  : 7s6p5d contracted to 5s3p2d pattern {31111/411/41}
 Group   2 Type O   : 7s4p1d contracted to 3s2p1d pattern {511/31/1}
 Group   3 Type C   : 7s4p1d contracted to 3s2p1d pattern {511/31/1}
 Group   4 Type H   : 4s contracted to 2s pattern {31}

Atom   0Pd   basis set group =>   1
Atom   1O    basis set group =>   2
Atom   2O    basis set group =>   2
Atom   3C    basis set group =>   3
Atom   4C    basis set group =>   3
Atom   5H    basis set group =>   4
Atom   6H    basis set group =>   4
Atom   7H    basis set group =>   4
Atom   8O    basis set group =>   2
Atom   9C    basis set group =>   3
Atom  10O    basis set group =>   2
Atom  11C    basis set group =>   3
Atom  12H    basis set group =>   4
Atom  13H    basis set group =>   4
Atom  14H    basis set group =>   4
Atom  15O    basis set group =>   2
Atom  16Pd   basis set group =>   1
Atom  17O    basis set group =>   2
Atom  18C    basis set group =>   3
Atom  19H    basis set group =>   4
Atom  20H    basis set group =>   4
Atom  21C    basis set group =>   3
Atom  22H    basis set group =>   4
Atom  23O    basis set group =>   2
Atom  24C    basis set group =>   3
Atom  25O    basis set group =>   2
Atom  26C    basis set group =>   3
Atom  27H    basis set group =>   4
Atom  28H    basis set group =>   4
Atom  29H    basis set group =>   4
Atom  30O    basis set group =>   2
Atom  31C    basis set group =>   3
Atom  32O    basis set group =>   2
Atom  33C    basis set group =>   3
Atom  34H    basis set group =>   4
Atom  35H    basis set group =>   4
Atom  36H    basis set group =>   4
---------------------------------
AUXILIARY/J BASIS SET INFORMATION
---------------------------------
There are 4 groups of distinct atoms

 Group   1 Type Pd  : 11s5p5d3f3g contracted to 8s5p5d2f3g pattern {41111111/11111/11111/21/111}
 Group   2 Type O   : 12s5p4d2f1g contracted to 6s4p3d1f1g pattern {711111/2111/211/2/1}
 Group   3 Type C   : 12s5p4d2f1g contracted to 6s4p3d1f1g pattern {711111/2111/211/2/1}
 Group   4 Type H   : 5s2p1d contracted to 3s1p1d pattern {311/2/1}

Atom   0Pd   basis set group =>   1
Atom   1O    basis set group =>   2
Atom   2O    basis set group =>   2
Atom   3C    basis set group =>   3
Atom   4C    basis set group =>   3
Atom   5H    basis set group =>   4
Atom   6H    basis set group =>   4
Atom   7H    basis set group =>   4
Atom   8O    basis set group =>   2
Atom   9C    basis set group =>   3
Atom  10O    basis set group =>   2
Atom  11C    basis set group =>   3
Atom  12H    basis set group =>   4
Atom  13H    basis set group =>   4
Atom  14H    basis set group =>   4
Atom  15O    basis set group =>   2
Atom  16Pd   basis set group =>   1
Atom  17O    basis set group =>   2
Atom  18C    basis set group =>   3
Atom  19H    basis set group =>   4
Atom  20H    basis set group =>   4
Atom  21C    basis set group =>   3
Atom  22H    basis set group =>   4
Atom  23O    basis set group =>   2
Atom  24C    basis set group =>   3
Atom  25O    basis set group =>   2
Atom  26C    basis set group =>   3
Atom  27H    basis set group =>   4
Atom  28H    basis set group =>   4
Atom  29H    basis set group =>   4
Atom  30O    basis set group =>   2
Atom  31C    basis set group =>   3
Atom  32O    basis set group =>   2
Atom  33C    basis set group =>   3
Atom  34H    basis set group =>   4
Atom  35H    basis set group =>   4
Atom  36H    basis set group =>   4
-------------------------
ECP PARAMETER INFORMATION
-------------------------

 Group 1, Type Pd ECP Def2-ECP (replacing 28 core electrons, lmax=3)

Atom   0Pd   ECP group =>   1
Atom  16Pd   ECP group =>   1



           ************************************************************
           *        Program running with 16 parallel MPI-processes    *
           *              working on a common directory               *
           ************************************************************
------------------------------------------------------------------------------
                             ORCA STARTUP CALCULATIONS
                           -- RI-GTO INTEGRALS CHOSEN --
------------------------------------------------------------------------------
------------------------------------------------------------------------------
                   ___                                                        
                  /   \      - P O W E R E D   B Y -                         
                 /     \                                                     
                 |  |  |   _    _      __       _____    __    __             
                 |  |  |  | |  | |    /  \     |  _  \  |  |  /  |          
                  \  \/   | |  | |   /    \    | | | |  |  | /  /          
                 / \  \   | |__| |  /  /\  \   | |_| |  |  |/  /          
                |  |  |   |  __  | /  /__\  \  |    /   |      \           
                |  |  |   | |  | | |   __   |  |    \   |  |\   \          
                \     /   | |  | | |  |  |  |  | |\  \  |  | \   \       
                 \___/    |_|  |_| |__|  |__|  |_| \__\ |__|  \__/        
                                                                              
                      - O R C A' S   B I G   F R I E N D -                    
                                      &                                       
                       - I N T E G R A L  F E E D E R -                       
                                                                              
 v1 FN, 2020, v2 2021, v3 2022-2024                                           
------------------------------------------------------------------------------


----------------------
SHARK INTEGRAL PACKAGE
----------------------

Number of atoms                             ...     37
Number of basis functions                   ...    358
Number of shells                            ...    170
Maximum angular momentum                    ...      2
Integral batch strategy                     ... SHARK/LIBINT Hybrid
RI-J (if used) integral strategy            ... SPLIT-RIJ (Revised 2003 algorithm where possible)
Printlevel                                  ...      1
Contraction scheme used                     ... SEGMENTED contraction
Prescreening option                         ... SCHWARTZ
   Thresh                                   ... 2.500e-11
   Tcut                                     ... 2.500e-12
   Tpresel                                  ... 2.500e-12 
Coulomb Range Separation                    ... NOT USED
Exchange Range Separation                   ... NOT USED
Multipole approximations                    ... NOT USED
Finite Nucleus Model                        ... NOT USED
CABS basis                                  ... NOT available
Auxiliary Coulomb fitting basis             ... AVAILABLE
   # of basis functions in Aux-J            ...   1323
   # of shells in Aux-J                     ...    421
   Maximum angular momentum in Aux-J        ...      4
Auxiliary J/K fitting basis                 ... NOT available
Auxiliary Correlation fitting basis         ... NOT available
Auxiliary 'external' fitting basis          ... NOT available

Checking pre-screening integrals            ... done (  0.1 sec) Dimension = 170
Check shell pair data                       ... done (  0.0 sec)
Shell pair information
Shell pair cut-off parameter TPreSel        ...   2.5e-12
Total number of shell pairs                 ...     14535
Shell pairs after pre-screening             ...     11180
Total number of primitive shell pairs       ...     56951
Primitive shell pairs kept                  ...     26542
          la=0 lb=0:   3719 shell pairs
          la=1 lb=0:   3787 shell pairs
          la=1 lb=1:    971 shell pairs
          la=2 lb=0:   1640 shell pairs
          la=2 lb=1:    880 shell pairs
          la=2 lb=2:    183 shell pairs

Calculating one electron integrals          ... done (  0.0 sec)
Calculating ECP integrals                   ... done (  1.0 sec)
Calculating RI/J V-Matrix + Cholesky decomp.... done (  0.2 sec)
Calculating Nuclear repulsion               ... done (  0.0 sec) ENN=   2587.389662730408 Eh

Diagonalization of the overlap matrix:
Smallest eigenvalue                        ... 2.516e-03
Time for diagonalization                   ...    0.028 sec
Threshold for overlap eigenvalues          ... 1.000e-07
Number of eigenvalues below threshold      ... 0
Time for construction of square roots      ...    0.026 sec
Total time needed                          ...    0.120 sec

-------------------
DFT GRID GENERATION
-------------------

General Integration Accuracy     IntAcc      ... 4.388
Radial Grid Type                 RadialGrid  ... OptM3 with GC (2021)
Angular Grid (max. ang.)         AngularGrid ... 4 (Lebedev-302)
Angular grid pruning method      GridPruning ... 4 (adaptive)
Weight generation scheme         WeightScheme... mBecke (2022)
Basis function cutoff            BFCut       ... 1.0000e-11
Integration weight cutoff        WCut        ... 1.0000e-14
Partially contracted basis set               ... off
Rotationally invariant grid construction     ... off
Angular grids for H and He will be reduced by one unit

Total number of grid points                  ...   187868
Total number of batches                      ...     2955
Average number of points per batch           ...       63
Average number of grid points per atom       ...     5078

--------------------
COSX GRID GENERATION
--------------------

GRIDX 1
-------
General Integration Accuracy     IntAcc      ... 3.816
Radial Grid Type                 RadialGrid  ... OptM3 with GC (2021)
Angular Grid (max. ang.)         AngularGrid ... 1 (Lebedev-50)
Angular grid pruning method      GridPruning ... 4 (adaptive)
Weight generation scheme         WeightScheme... mBecke (2022)
Basis function cutoff            BFCut       ... 1.0000e-11
Integration weight cutoff        WCut        ... 1.0000e-14
Partially contracted basis set               ... on
Rotationally invariant grid construction     ... off
Angular grids for H and He will be reduced by one unit

Total number of grid points                  ...    30414
Total number of batches                      ...      259
Average number of points per batch           ...      117
Average number of grid points per atom       ...      822
UseSFitting                                  ... on

GRIDX 2
-------
General Integration Accuracy     IntAcc      ... 4.020
Radial Grid Type                 RadialGrid  ... OptM3 with GC (2021)
Angular Grid (max. ang.)         AngularGrid ... 2 (Lebedev-110)
Angular grid pruning method      GridPruning ... 4 (adaptive)
Weight generation scheme         WeightScheme... mBecke (2022)
Basis function cutoff            BFCut       ... 1.0000e-11
Integration weight cutoff        WCut        ... 1.0000e-14
Partially contracted basis set               ... on
Rotationally invariant grid construction     ... off
Angular grids for H and He will be reduced by one unit

Total number of grid points                  ...    55875
Total number of batches                      ...      454
Average number of points per batch           ...      123
Average number of grid points per atom       ...     1510
UseSFitting                                  ... on

GRIDX 3
-------
General Integration Accuracy     IntAcc      ... 4.338
Radial Grid Type                 RadialGrid  ... OptM3 with GC (2021)
Angular Grid (max. ang.)         AngularGrid ... 3 (Lebedev-194)
Angular grid pruning method      GridPruning ... 4 (adaptive)
Weight generation scheme         WeightScheme... mBecke (2022)
Basis function cutoff            BFCut       ... 1.0000e-11
Integration weight cutoff        WCut        ... 1.0000e-14
Partially contracted basis set               ... on
Rotationally invariant grid construction     ... off
Angular grids for H and He will be reduced by one unit

Total number of grid points                  ...   111854
Total number of batches                      ...      896
Average number of points per batch           ...      124
Average number of grid points per atom       ...     3023
UseSFitting                                  ... on
Initializing property integral containers    ... done (  0.1 sec)

SHARK setup successfully completed in   6.3 seconds

Maximum memory used throughout the entire STARTUP-calculation: 49.2 MB


           ************************************************************
           *        Program running with 16 parallel MPI-processes    *
           *              working on a common directory               *
           ************************************************************
-------------------------------------------------------------------------------
                                 ORCA GUESS
                   Start orbitals & Density for SCF / CASSCF
-------------------------------------------------------------------------------

------------
SCF SETTINGS
------------
Hamiltonian:
 Density Functional     Method          .... DFT(GTOs)
 Exchange Functional    Exchange        .... PBE
   PBE kappa parameter   XKappa         ....  0.804000
   PBE mue parameter    XMuePBE         ....  0.219520
 Correlation Functional Correlation     .... PBE
   PBE beta parameter  CBetaPBE         ....  0.066725
 LDA part of GGA corr.  LDAOpt          .... PW91-LDA
 Gradients option       PostSCFGGA      .... off
 Hybrid DFT is turned on
   Fraction HF Exchange ScalHFX         ....  0.250000
   Scaling of DF-GGA-X  ScalDFX         ....  0.750000
   Scaling of DF-GGA-C  ScalDFC         ....  1.000000
   Scaling of DF-LDA-C  ScalLDAC        ....  1.000000
   Perturbative correction              ....  0.000000
   NL short-range parameter             ....  6.900000
 RI-approximation to the Coulomb term is turned on
   Number of AuxJ basis functions       .... 1323
   RIJ-COSX (HFX calculated with COS-X)).... on


General Settings:
 Integral files         IntName         .... CS_PdOAc_004_freq_01
 Hartree-Fock type      HFTyp           .... RHF
 Total Charge           Charge          ....   -1
 Multiplicity           Mult            ....    1
 Number of Electrons    NEL             ....  192
 Basis Dimension        Dim             ....  358
 Nuclear Repulsion      ENuc            ....   2587.3896627304 Eh

Convergence Acceleration:
 AO-DIIS                CNVDIIS         .... on
   Start iteration      DIISMaxIt       ....     0
   Startup error        DIISStart       ....  0.200000
   # of expansion vecs  DIISMaxEq       ....     5
   Bias factor          DIISBfac        ....   1.050
   Max. coefficient     DIISMaxC        ....  10.000
 MO-DIIS                CNVKDIIS        .... off
 Trust-Rad. Augm. Hess. CNVTRAH         .... auto
   Auto Start mean grad. ratio tolernc. ....  1.125000
   Auto Start start iteration           ....    50
   Auto Start num. interpolation iter.  ....    10
   Max. Number of Micro iterations      ....    24
   Max. Number of Macro iterations      .... Maxiter - #DIIS iter
   Number of Davidson start vectors     ....     2
   Converg. threshold    (grad. norm)   ....   1.000e-05
   Grad. Scal. Fac. for Micro threshold ....   0.100
   Minimum threshold for Micro iter.    ....   1.000e-02
   NR start threshold (gradient norm)   ....   1.000e-04
   Initial trust radius                 ....   0.400
   Minimum AH scaling param. (alpha)    ....   1.000
   Maximum AH scaling param. (alpha)    .... 1000.000
   Quad. conv. algorithm                .... NR
   White noise on init. David. guess    .... on
   Maximum white noise                  ....   0.010
   Pseudo random numbers                .... off
   Inactive MOs                         .... canonical
   Orbital update algorithm             .... Taylor
   Preconditioner                       .... Diag
   Full preconditioner red. dimension   ....   250
 SOSCF                  CNVSOSCF        .... on
   Start iteration      SOSCFMaxIt      ....   150
   Startup grad/error   SOSCFStart      ....  0.001000
   Hessian update       SOSCFHessUp     .... L-BFGS
 Level Shifting         CNVShift        .... on
   Level shift para.    LevelShift      ....    0.2500
   Turn off err/grad.   ShiftErr        ....    0.0000
 Zerner damping         CNVZerner       .... off
 Static damping         CNVDamp         .... on
   Fraction old density DampFac         ....    0.8500
   Max. Damping (<1)    DampMax         ....    0.9800
   Min. Damping (>=0)   DampMin         ....    0.0000
   Turn off err/grad.   DampErr         ....    0.0300

SCF Procedure:
 Maximum # iterations   MaxIter         ....  1500
 SCF integral mode      SCFMode         .... Direct
   Integral package                     .... SHARK and LIBINT hybrid scheme
 Reset frequency        DirectResetFreq ....    20
 Integral Threshold     Thresh          ....  2.500e-11 Eh
 Primitive CutOff       TCut            ....  2.500e-12 Eh

Convergence Tolerance:
 Convergence Check Mode ConvCheckMode   .... Total+1el-Energy
 Convergence forced     ConvForced      .... 0
 Energy Change          TolE            ....  1.000e-08 Eh
 1-El. energy change                    ....  1.000e-05 Eh
 Orbital Gradient       TolG            ....  1.000e-05
 Orbital Rotation angle TolX            ....  1.000e-05
 DIIS Error             TolErr          ....  5.000e-07

------------------------------
INITIAL GUESS: MODEL POTENTIAL
------------------------------
Loading Hartree-Fock densities                     ... done
Atomic calculation to generate a density for atom 0 (Pd with ECP)
  Multiplicity assumed   :    3
  Atomic configuration   : 1s2 2s2 2p6 3s2 3p6 4s2 3d10 4p6 5s2 4d8 
  Number of open shells  : 1
  Command: /opt/apps/software/ORCA/6.0.0-gompi-2023b/bin/orca CS_PdOAc_004_freq_01_atom46.inp "" > CS_PdOAc_004_freq_01_atom46.out
Returned from the atomic calculation with res=0
Calculating cut-offs                               ... done
Initializing the effective Hamiltonian             ... done
Setting up the integral package (SHARK)            ... done
Starting the Coulomb interaction                   ... done (   0.3 sec)
Making the grid                                    ... done (   0.5 sec)
Mapping shells                                     ... done
Starting the XC term evaluation                    ... done (   0.1 sec)
  promolecular density results
     # of electrons  =    246.976129905
     EX              =   -414.195131155
     EC              =    -10.099937100
     EX+EC           =   -424.295068256
Transforming the Hamiltonian                       ... done (   0.1 sec)
Diagonalizing the Hamiltonian                      ... done (   0.0 sec)
Back transforming the eigenvectors                 ... done (   0.1 sec)
Now organizing SCF variables                       ... done
                      ------------------
                      INITIAL GUESS DONE (  13.0 sec)
                      ------------------
             **** ENERGY FILE WAS UPDATED (CS_PdOAc_004_freq_01.en.tmp) ****
Finished Guess after  14.3 sec
Maximum memory used throughout the entire GUESS-calculation: 29.2 MB


           ************************************************************
           *        Program running with 16 parallel MPI-processes    *
           *              working on a common directory               *
           ************************************************************

-------------------------------------------------------------------------------------------
                                      ORCA LEAN-SCF
                              memory conserving SCF solver
-------------------------------------------------------------------------------------------

----------------------------------------D-I-I-S--------------------------------------------
Iteration    Energy (Eh)           Delta-E    RMSDP     MaxDP     DIISErr   Damp  Time(sec)
-------------------------------------------------------------------------------------------
               ***  Starting incremental Fock matrix formation  ***
    1    -1395.4859462312369942     0.00e+00  1.56e-03  4.74e-02  4.66e-01  0.850   5.0
Warning: op=0 Small HOMO/LUMO gap (   0.072) - skipping pre-diagonalization
         Will do a full diagonalization
    2    -1395.6870139314091830    -2.01e-01  1.68e-03  7.60e-02  3.94e-01  0.850   5.5
                               ***Turning on AO-DIIS***
    3    -1395.8136091341075371    -1.27e-01  8.21e-04  3.39e-02  3.33e-01  0.850   4.1
    4    -1395.8936233085123604    -8.00e-02  4.85e-04  1.71e-02  2.81e-01  0.850   5.0
    5    -1395.9509558231479787    -5.73e-02  3.35e-04  1.38e-02  2.38e-01  0.850   4.7
    6    -1395.9961884954291236    -4.52e-02  2.67e-04  1.15e-02  2.03e-01  0.850   4.4
    7    -1396.0335694988989417    -3.74e-02  2.35e-04  9.89e-03  1.72e-01  0.850   4.9
    8    -1396.0648193490824269    -3.12e-02  2.05e-04  8.87e-03  1.47e-01  0.850   4.0
    9    -1396.0906050343223797    -2.58e-02  1.74e-04  7.66e-03  1.25e-01  0.850   5.2
   10    -1396.1118514067698015    -2.12e-02  1.45e-04  6.39e-03  1.06e-01  0.850   4.1
   11    -1396.1294537769404087    -1.76e-02  1.21e-04  5.31e-03  8.99e-02  0.850   3.9
   12    -1396.1441179085054500    -1.47e-02  1.01e-04  4.50e-03  7.64e-02  0.850   3.9
   13    -1396.1563757010553672    -1.23e-02  8.50e-05  3.88e-03  6.49e-02  0.850   5.4
   14    -1396.1666445039159044    -1.03e-02  7.17e-05  3.32e-03  5.52e-02  0.850   4.0
   15    -1396.1752663357419806    -8.62e-03  6.04e-05  2.81e-03  4.69e-02  0.850   4.7
   16    -1396.1825212251596895    -7.25e-03  5.08e-05  2.37e-03  3.98e-02  0.850   4.2
   17    -1396.1886367190404599    -6.12e-03  4.28e-05  2.01e-03  3.38e-02  0.850   4.3
   18    -1396.1937985882314024    -5.16e-03  3.60e-05  1.71e-03  2.88e-02  0.850   4.7
   19    -1396.1981602642958933    -4.36e-03  2.02e-04  9.73e-03  2.44e-02  0.000   3.7
                              *** Initializing SOSCF ***
---------------------------------------S-O-S-C-F--------------------------------------
Iteration    Energy (Eh)           Delta-E    RMSDP     MaxDP     MaxGrad    Time(sec)
--------------------------------------------------------------------------------------
   20    -1396.2224643629351704    -2.43e-02  1.42e-05  5.48e-04  4.62e-04     4.3
               *** Restarting incremental Fock matrix formation ***
   21    -1396.2225303602422173    -6.60e-05  1.10e-05  3.74e-04  3.33e-05     4.8
   22    -1396.2225302083925271     1.52e-07  4.74e-06  2.51e-04  7.42e-05     3.9
   23    -1396.2225306618083778    -4.53e-07  2.50e-06  1.37e-04  2.22e-05     3.7
   24    -1396.2225306055520377     5.63e-08  1.60e-06  9.38e-05  3.60e-05     5.4
   25    -1396.2225306737655046    -6.82e-08  2.73e-07  1.54e-05  1.43e-06     3.5
                  *** Gradient check signals convergence ***

               *****************************************************
               *                     SUCCESS                       *
               *           SCF CONVERGED AFTER  25 CYCLES          *
               *****************************************************

Recomputing exchange energy using gridx3       ... done (    4.246 sec)
Old exchange energy                            :    -40.766272879 Eh
New exchange energy                            :    -40.766321185 Eh
Exchange energy change after final integration :     -0.000048307 Eh
Total energy after final integration           :  -1396.222578981 Eh
             **** ENERGY FILE WAS UPDATED (CS_PdOAc_004_freq_01.en.tmp) ****

----------------
TOTAL SCF ENERGY
----------------

Total Energy       :      -1396.22257898052817 Eh          -37993.14791 eV

Components:
Nuclear Repulsion  :       2587.38966273040796 Eh           70406.45212 eV
Electronic Energy  :      -3983.61219340417347 Eh         -108399.59871 eV
One Electron Energy:      -7196.46180871309571 Eh         -195825.68140 eV
Two Electron Energy:       3212.84961530892224 Eh           87426.08269 eV

Virial components:
Potential Energy   :      -2623.80889865017252 Eh          -71397.46991 eV
Kinetic Energy     :       1227.58631966964458 Eh           33404.32200 eV
Virial Ratio       :          2.13737222108851

DFT components:
N(Alpha)           :       95.999812112800 electrons
N(Beta)            :       95.999812112800 electrons
N(Total)           :      191.999624225600 electrons
E(X)               :     -122.457765442034 Eh       
E(C)               :       -6.862761874046 Eh       
E(XC)              :     -129.320527316081 Eh       

---------------
SCF CONVERGENCE
---------------

  Last Energy change         ...    6.8213e-08  Tolerance :   1.0000e-08
  Last MAX-Density change    ...    1.5415e-05  Tolerance :   1.0000e-07
  Last RMS-Density change    ...    2.7295e-07  Tolerance :   5.0000e-09
  Last DIIS Error            ...    4.6166e-04  Tolerance :   5.0000e-07
  Last Orbital Gradient      ...    1.4272e-06  Tolerance :   1.0000e-05
  Last Orbital Rotation      ...    6.6049e-06  Tolerance :   1.0000e-05


----------------
ORBITAL ENERGIES
----------------

  NO   OCC          E(Eh)            E(eV) 
   0   2.0000     -19.124708      -520.4098 
   1   2.0000     -19.123844      -520.3862 
   2   2.0000     -19.119948      -520.2802 
   3   2.0000     -19.118287      -520.2350 
   4   2.0000     -19.108496      -519.9686 
   5   2.0000     -19.103062      -519.8208 
   6   2.0000     -19.069959      -518.9200 
   7   2.0000     -19.063469      -518.7434 
   8   2.0000     -19.027453      -517.7633 
   9   2.0000     -19.020095      -517.5631 
  10   2.0000     -10.261858      -279.2394 
  11   2.0000     -10.254940      -279.0511 
  12   2.0000     -10.251090      -278.9463 
  13   2.0000     -10.197815      -277.4966 
  14   2.0000     -10.189362      -277.2666 
  15   2.0000     -10.144615      -276.0490 
  16   2.0000     -10.140158      -275.9277 
  17   2.0000     -10.134419      -275.7716 
  18   2.0000     -10.108433      -275.0644 
  19   2.0000     -10.095353      -274.7085 
  20   2.0000      -3.426822       -93.2486 
  21   2.0000      -3.391506       -92.2876 
  22   2.0000      -2.110302       -57.4242 
  23   2.0000      -2.104190       -57.2579 
  24   2.0000      -2.071660       -56.3727 
  25   2.0000      -2.070153       -56.3317 
  26   2.0000      -2.060776       -56.0766 
  27   2.0000      -2.026429       -55.1419 
  28   2.0000      -1.018980       -27.7279 
  29   2.0000      -0.997155       -27.1340 
  30   2.0000      -0.991992       -26.9935 
  31   2.0000      -0.934666       -25.4336 
  32   2.0000      -0.926302       -25.2059 
  33   2.0000      -0.907852       -24.7039 
  34   2.0000      -0.905005       -24.6264 
  35   2.0000      -0.902733       -24.5646 
  36   2.0000      -0.845614       -23.0103 
  37   2.0000      -0.837524       -22.7902 
  38   2.0000      -0.671736       -18.2789 
  39   2.0000      -0.659092       -17.9348 
  40   2.0000      -0.653882       -17.7930 
  41   2.0000      -0.618724       -16.8363 
  42   2.0000      -0.607850       -16.5405 
  43   2.0000      -0.472268       -12.8511 
  44   2.0000      -0.465938       -12.6788 
  45   2.0000      -0.456782       -12.4297 
  46   2.0000      -0.426638       -11.6094 
  47   2.0000      -0.422664       -11.5013 
  48   2.0000      -0.410140       -11.1605 
  49   2.0000      -0.405399       -11.0315 
  50   2.0000      -0.402069       -10.9408 
  51   2.0000      -0.398234       -10.8365 
  52   2.0000      -0.390981       -10.6391 
  53   2.0000      -0.387041       -10.5319 
  54   2.0000      -0.385290       -10.4843 
  55   2.0000      -0.380785       -10.3617 
  56   2.0000      -0.373292       -10.1578 
  57   2.0000      -0.345837        -9.4107 
  58   2.0000      -0.341376        -9.2893 
  59   2.0000      -0.333552        -9.0764 
  60   2.0000      -0.328645        -8.9429 
  61   2.0000      -0.326784        -8.8923 
  62   2.0000      -0.325340        -8.8530 
  63   2.0000      -0.323396        -8.8001 
  64   2.0000      -0.321943        -8.7605 
  65   2.0000      -0.315985        -8.5984 
  66   2.0000      -0.311126        -8.4662 
  67   2.0000      -0.309167        -8.4129 
  68   2.0000      -0.294484        -8.0133 
  69   2.0000      -0.284451        -7.7403 
  70   2.0000      -0.276299        -7.5185 
  71   2.0000      -0.270217        -7.3530 
  72   2.0000      -0.266486        -7.2515 
  73   2.0000      -0.263126        -7.1600 
  74   2.0000      -0.251954        -6.8560 
  75   2.0000      -0.246821        -6.7163 
  76   2.0000      -0.237180        -6.4540 
  77   2.0000      -0.231847        -6.3089 
  78   2.0000      -0.229460        -6.2439 
  79   2.0000      -0.220974        -6.0130 
  80   2.0000      -0.212071        -5.7707 
  81   2.0000      -0.203640        -5.5413 
  82   2.0000      -0.197131        -5.3642 
  83   2.0000      -0.191179        -5.2022 
  84   2.0000      -0.180074        -4.9001 
  85   2.0000      -0.175275        -4.7695 
  86   2.0000      -0.174427        -4.7464 
  87   2.0000      -0.167539        -4.5590 
  88   2.0000      -0.164384        -4.4731 
  89   2.0000      -0.157966        -4.2985 
  90   2.0000      -0.142305        -3.8723 
  91   2.0000      -0.132541        -3.6066 
  92   2.0000      -0.124720        -3.3938 
  93   2.0000      -0.122371        -3.3299 
  94   2.0000      -0.115791        -3.1508 
  95   2.0000      -0.097045        -2.6407 
  96   0.0000       0.021336         0.5806 
  97   0.0000       0.066075         1.7980 
  98   0.0000       0.108173         2.9435 
  99   0.0000       0.123888         3.3712 
 100   0.0000       0.129114         3.5134 
 101   0.0000       0.132970         3.6183 
 102   0.0000       0.154339         4.1998 
 103   0.0000       0.161634         4.3983 
 104   0.0000       0.166315         4.5257 
 105   0.0000       0.176773         4.8102 
 106   0.0000       0.181665         4.9434 
*Only the first 10 virtual orbitals were printed.

                    ********************************
                    * MULLIKEN POPULATION ANALYSIS *
                    ********************************

-----------------------
MULLIKEN ATOMIC CHARGES
-----------------------
   0 Pd:    0.371541
   1 O :   -0.336140
   2 O :   -0.389484
   3 C :    0.331547
   4 C :   -0.354744
   5 H :    0.144116
   6 H :    0.147910
   7 H :    0.136682
   8 O :   -0.424582
   9 C :    0.271357
  10 O :   -0.320498
  11 C :   -0.372752
  12 H :    0.122450
  13 H :    0.128017
  14 H :    0.113542
  15 O :   -0.354807
  16 Pd:    0.433876
  17 O :   -0.349611
  18 C :    0.333212
  19 H :    0.133435
  20 H :    0.197447
  21 C :   -0.338334
  22 H :    0.135827
  23 O :   -0.380061
  24 C :    0.328310
  25 O :   -0.336126
  26 C :   -0.349668
  27 H :    0.143140
  28 H :    0.130568
  29 H :    0.158415
  30 O :   -0.419935
  31 C :    0.279762
  32 O :   -0.317201
  33 C :   -0.358358
  34 H :    0.142119
  35 H :    0.102899
  36 H :    0.116128
Sum of atomic charges:   -1.0000000

--------------------------------
MULLIKEN REDUCED ORBITAL CHARGES
--------------------------------
  0 Pds       :     2.486627  s :     2.486627
      pz      :     2.165626  p :     6.446359
      px      :     2.122071
      py      :     2.158662
      dz2     :     1.103900  d :     8.695473
      dxz     :     1.976257
      dyz     :     1.994341
      dx2y2   :     1.671963
      dxy     :     1.949012

  1 O s       :     3.775988  s :     3.775988
      pz      :     1.564580  p :     4.544302
      px      :     1.492651
      py      :     1.487071
      dz2     :     0.002222  d :     0.015849
      dxz     :     0.003481
      dyz     :     0.002488
      dx2y2   :     0.003771
      dxy     :     0.003886

  2 O s       :     3.789947  s :     3.789947
      pz      :     1.577802  p :     4.584528
      px      :     1.431575
      py      :     1.575151
      dz2     :     0.002482  d :     0.015008
      dxz     :     0.002583
      dyz     :     0.001941
      dx2y2   :     0.003844
      dxy     :     0.004157

  3 C s       :     3.028233  s :     3.028233
      pz      :     0.909578  p :     2.497009
      px      :     0.801084
      py      :     0.786348
      dz2     :     0.032102  d :     0.143210
      dxz     :     0.031821
      dyz     :     0.019703
      dx2y2   :     0.033544
      dxy     :     0.026040

  4 C s       :     3.121516  s :     3.121516
      pz      :     1.025970  p :     3.204604
      px      :     1.091649
      py      :     1.086985
      dz2     :     0.007904  d :     0.028624
      dxz     :     0.004374
      dyz     :     0.004799
      dx2y2   :     0.006066
      dxy     :     0.005481

  5 H s       :     0.855884  s :     0.855884

  6 H s       :     0.852090  s :     0.852090

  7 H s       :     0.863318  s :     0.863318

  8 O s       :     3.792626  s :     3.792626
      pz      :     1.626761  p :     4.618186
      px      :     1.605414
      py      :     1.386011
      dz2     :     0.001907  d :     0.013770
      dxz     :     0.002314
      dyz     :     0.002647
      dx2y2   :     0.002250
      dxy     :     0.004653

  9 C s       :     3.018093  s :     3.018093
      pz      :     0.810945  p :     2.565567
      px      :     0.878455
      py      :     0.876166
      dz2     :     0.015983  d :     0.144983
      dxz     :     0.028854
      dyz     :     0.014090
      dx2y2   :     0.035135
      dxy     :     0.050921

 10 O s       :     3.776481  s :     3.776481
      pz      :     1.460109  p :     4.526676
      px      :     1.313900
      py      :     1.752667
      dz2     :     0.002336  d :     0.017341
      dxz     :     0.005440
      dyz     :     0.000464
      dx2y2   :     0.005529
      dxy     :     0.003572

 11 C s       :     3.129918  s :     3.129918
      pz      :     1.076158  p :     3.214015
      px      :     1.071480
      py      :     1.066377
      dz2     :     0.006218  d :     0.028819
      dxz     :     0.008341
      dyz     :     0.001657
      dx2y2   :     0.004043
      dxy     :     0.008560

 12 H s       :     0.877550  s :     0.877550

 13 H s       :     0.871983  s :     0.871983

 14 H s       :     0.886458  s :     0.886458

 15 O s       :     3.828364  s :     3.828364
      pz      :     1.301505  p :     4.509983
      px      :     1.566837
      py      :     1.641641
      dz2     :     0.007565  d :     0.016460
      dxz     :     0.004355
      dyz     :     0.003086
      dx2y2   :     0.000707
      dxy     :     0.000748

 16 Pds       :     2.486150  s :     2.486150
      pz      :     2.143545  p :     6.374388
      px      :     2.094399
      py      :     2.136444
      dz2     :     1.391728  d :     8.705586
      dxz     :     1.795837
      dyz     :     1.828311
      dx2y2   :     1.886748
      dxy     :     1.802961

 17 O s       :     3.828398  s :     3.828398
      pz      :     1.590554  p :     4.504640
      px      :     1.544124
      py      :     1.369962
      dz2     :     0.002762  d :     0.016573
      dxz     :     0.002394
      dyz     :     0.005300
      dx2y2   :     0.003205
      dxy     :     0.002911

 18 C s       :     3.028350  s :     3.028350
      pz      :     0.831342  p :     2.495682
      px      :     0.768481
      py      :     0.895859
      dz2     :     0.037705  d :     0.142756
      dxz     :     0.027557
      dyz     :     0.046765
      dx2y2   :     0.014394
      dxy     :     0.016335

 19 H s       :     0.866565  s :     0.866565

 20 H s       :     0.802553  s :     0.802553

 21 C s       :     3.085394  s :     3.085394
      pz      :     1.054223  p :     3.224483
      px      :     1.118825
      py      :     1.051434
      dz2     :     0.006617  d :     0.028457
      dxz     :     0.004598
      dyz     :     0.005875
      dx2y2   :     0.004420
      dxy     :     0.006948

 22 H s       :     0.864173  s :     0.864173

 23 O s       :     3.785549  s :     3.785549
      pz      :     1.615841  p :     4.579482
      px      :     1.301470
      py      :     1.662171
      dz2     :     0.001757  d :     0.015030
      dxz     :     0.004005
      dyz     :     0.000606
      dx2y2   :     0.005799
      dxy     :     0.002864

 24 C s       :     3.031130  s :     3.031130
      pz      :     0.783032  p :     2.497170
      px      :     0.819782
      py      :     0.894356
      dz2     :     0.009027  d :     0.143391
      dxz     :     0.031736
      dyz     :     0.012628
      dx2y2   :     0.047745
      dxy     :     0.042254

 25 O s       :     3.777670  s :     3.777670
      pz      :     1.557358  p :     4.542536
      px      :     1.556817
      py      :     1.428360
      dz2     :     0.001773  d :     0.015920
      dxz     :     0.002851
      dyz     :     0.002483
      dx2y2   :     0.003068
      dxy     :     0.005744

 26 C s       :     3.118972  s :     3.118972
      pz      :     1.105501  p :     3.202098
      px      :     1.078517
      py      :     1.018080
      dz2     :     0.006700  d :     0.028598
      dxz     :     0.006588
      dyz     :     0.002535
      dx2y2   :     0.004556
      dxy     :     0.008218

 27 H s       :     0.856860  s :     0.856860

 28 H s       :     0.869432  s :     0.869432

 29 H s       :     0.841585  s :     0.841585

 30 O s       :     3.800627  s :     3.800627
      pz      :     1.495215  p :     4.605423
      px      :     1.405895
      py      :     1.704313
      dz2     :     0.002472  d :     0.013885
      dxz     :     0.003448
      dyz     :     0.001149
      dx2y2   :     0.003859
      dxy     :     0.002957

 31 C s       :     3.017493  s :     3.017493
      pz      :     0.898796  p :     2.558602
      px      :     0.832817
      py      :     0.826989
      dz2     :     0.030540  d :     0.144144
      dxz     :     0.036030
      dyz     :     0.013728
      dx2y2   :     0.032582
      dxy     :     0.031264

 32 O s       :     3.772821  s :     3.772821
      pz      :     1.629935  p :     4.526976
      px      :     1.464389
      py      :     1.432652
      dz2     :     0.002365  d :     0.017404
      dxz     :     0.004575
      dyz     :     0.001880
      dx2y2   :     0.003996
      dxy     :     0.004589

 33 C s       :     3.118999  s :     3.118999
      pz      :     1.055426  p :     3.210548
      px      :     1.053992
      py      :     1.101130
      dz2     :     0.005922  d :     0.028811
      dxz     :     0.008457
      dyz     :     0.003732
      dx2y2   :     0.008256
      dxy     :     0.002444

 34 H s       :     0.857881  s :     0.857881

 35 H s       :     0.897101  s :     0.897101

 36 H s       :     0.883872  s :     0.883872



                     *******************************
                     * LOEWDIN POPULATION ANALYSIS *
                     *******************************

----------------------
LOEWDIN ATOMIC CHARGES
----------------------
   0 Pd:   -0.251938
   1 O :   -0.074249
   2 O :   -0.103444
   3 C :    0.117927
   4 C :   -0.352085
   5 H :    0.136462
   6 H :    0.145257
   7 H :    0.134259
   8 O :   -0.137169
   9 C :    0.053732
  10 O :   -0.233245
  11 C :   -0.372349
  12 H :    0.123262
  13 H :    0.128524
  14 H :    0.120316
  15 O :   -0.106921
  16 Pd:   -0.170589
  17 O :   -0.105011
  18 C :    0.126071
  19 H :    0.138336
  20 H :    0.170544
  21 C :   -0.356038
  22 H :    0.138586
  23 O :   -0.095034
  24 C :    0.120076
  25 O :   -0.073446
  26 C :   -0.351136
  27 H :    0.140477
  28 H :    0.128232
  29 H :    0.150678
  30 O :   -0.136019
  31 C :    0.062712
  32 O :   -0.225124
  33 C :   -0.369275
  34 H :    0.140489
  35 H :    0.115150
  36 H :    0.121982

-------------------------------
LOEWDIN REDUCED ORBITAL CHARGES
-------------------------------
  0 Pds       :     2.440465  s :     2.440465
      pz      :     2.276338  p :     6.723328
      px      :     2.165312
      py      :     2.281677
      dz2     :     1.275673  d :     9.088146
      dxz     :     2.000952
      dyz     :     2.055729
      dx2y2   :     1.753790
      dxy     :     2.002002

  1 O s       :     3.457312  s :     3.457312
      pz      :     1.548865  p :     4.587764
      px      :     1.534578
      py      :     1.504321
      dz2     :     0.004350  d :     0.029174
      dxz     :     0.007296
      dyz     :     0.005155
      dx2y2   :     0.004762
      dxy     :     0.007611

  2 O s       :     3.465362  s :     3.465362
      pz      :     1.550265  p :     4.610285
      px      :     1.487233
      py      :     1.572787
      dz2     :     0.004736  d :     0.027798
      dxz     :     0.006099
      dyz     :     0.003495
      dx2y2   :     0.005524
      dxy     :     0.007944

  3 C s       :     2.814687  s :     2.814687
      pz      :     1.005893  p :     2.753973
      px      :     0.910959
      py      :     0.837121
      dz2     :     0.075181  d :     0.313413
      dxz     :     0.068547
      dyz     :     0.040298
      dx2y2   :     0.066279
      dxy     :     0.063108

  4 C s       :     2.961675  s :     2.961675
      pz      :     1.067848  p :     3.323327
      px      :     1.128841
      py      :     1.126638
      dz2     :     0.020412  d :     0.067083
      dxz     :     0.010336
      dyz     :     0.011279
      dx2y2   :     0.013717
      dxy     :     0.011339

  5 H s       :     0.863538  s :     0.863538

  6 H s       :     0.854743  s :     0.854743

  7 H s       :     0.865741  s :     0.865741

  8 O s       :     3.476057  s :     3.476057
      pz      :     1.610060  p :     4.635112
      px      :     1.620326
      py      :     1.404726
      dz2     :     0.002982  d :     0.026000
      dxz     :     0.003696
      dyz     :     0.005214
      dx2y2   :     0.004631
      dxy     :     0.009477

  9 C s       :     2.828120  s :     2.828120
      pz      :     0.829782  p :     2.796990
      px      :     1.001649
      py      :     0.965558
      dz2     :     0.032414  d :     0.321158
      dxz     :     0.060882
      dyz     :     0.028822
      dx2y2   :     0.080657
      dxy     :     0.118383

 10 O s       :     3.540772  s :     3.540772
      pz      :     1.466171  p :     4.662438
      px      :     1.451026
      py      :     1.745241
      dz2     :     0.003973  d :     0.030035
      dxz     :     0.008466
      dyz     :     0.000647
      dx2y2   :     0.011207
      dxy     :     0.005742

 11 C s       :     2.973005  s :     2.973005
      pz      :     1.119074  p :     3.332116
      px      :     1.116646
      py      :     1.096396
      dz2     :     0.014597  d :     0.067228
      dxz     :     0.018792
      dyz     :     0.003479
      dx2y2   :     0.009456
      dxy     :     0.020904

 12 H s       :     0.876738  s :     0.876738

 13 H s       :     0.871476  s :     0.871476

 14 H s       :     0.879684  s :     0.879684

 15 O s       :     3.496858  s :     3.496858
      pz      :     1.424271  p :     4.581606
      px      :     1.539865
      py      :     1.617471
      dz2     :     0.015902  d :     0.028457
      dxz     :     0.005359
      dyz     :     0.005068
      dx2y2   :     0.001035
      dxy     :     0.001094

 16 Pds       :     2.431640  s :     2.431640
      pz      :     2.243335  p :     6.663409
      px      :     2.190052
      py      :     2.230023
      dz2     :     1.518813  d :     9.075540
      dxz     :     1.845188
      dyz     :     1.896821
      dx2y2   :     1.946919
      dxy     :     1.867799

 17 O s       :     3.500212  s :     3.500212
      pz      :     1.612567  p :     4.576208
      px      :     1.524360
      py      :     1.439280
      dz2     :     0.004120  d :     0.028592
      dxz     :     0.003107
      dyz     :     0.010637
      dx2y2   :     0.006274
      dxy     :     0.004454

 18 C s       :     2.825074  s :     2.825074
      pz      :     0.968743  p :     2.741986
      px      :     0.773202
      py      :     1.000041
      dz2     :     0.087992  d :     0.306870
      dxz     :     0.052809
      dyz     :     0.105274
      dx2y2   :     0.030549
      dxy     :     0.030245

 19 H s       :     0.861664  s :     0.861664

 20 H s       :     0.829456  s :     0.829456

 21 C s       :     2.953273  s :     2.953273
      pz      :     1.108855  p :     3.335445
      px      :     1.135723
      py      :     1.090867
      dz2     :     0.015388  d :     0.067319
      dxz     :     0.010243
      dyz     :     0.014695
      dx2y2   :     0.010576
      dxy     :     0.016418

 22 H s       :     0.861414  s :     0.861414

 23 O s       :     3.464305  s :     3.464305
      pz      :     1.578993  p :     4.602810
      px      :     1.402924
      py      :     1.620894
      dz2     :     0.003770  d :     0.027919
      dxz     :     0.005296
      dyz     :     0.000943
      dx2y2   :     0.012269
      dxy     :     0.005641

 24 C s       :     2.814477  s :     2.814477
      pz      :     0.788226  p :     2.751805
      px      :     0.967923
      py      :     0.995656
      dz2     :     0.020973  d :     0.313642
      dxz     :     0.061103
      dyz     :     0.023685
      dx2y2   :     0.110877
      dxy     :     0.097005

 25 O s       :     3.455676  s :     3.455676
      pz      :     1.529459  p :     4.588492
      px      :     1.607013
      py      :     1.452020
      dz2     :     0.003559  d :     0.029278
      dxz     :     0.003585
      dyz     :     0.004009
      dx2y2   :     0.005689
      dxy     :     0.012436

 26 C s       :     2.961019  s :     2.961019
      pz      :     1.132652  p :     3.323066
      px      :     1.119563
      py      :     1.070851
      dz2     :     0.015568  d :     0.067051
      dxz     :     0.014515
      dyz     :     0.005867
      dx2y2   :     0.011155
      dxy     :     0.019946

 27 H s       :     0.859523  s :     0.859523

 28 H s       :     0.871768  s :     0.871768

 29 H s       :     0.849322  s :     0.849322

 30 O s       :     3.477530  s :     3.477530
      pz      :     1.480758  p :     4.632497
      px      :     1.483664
      py      :     1.668075
      dz2     :     0.004623  d :     0.025992
      dxz     :     0.007761
      dyz     :     0.001958
      dx2y2   :     0.007581
      dxy     :     0.004068

 31 C s       :     2.828921  s :     2.828921
      pz      :     0.977983  p :     2.788931
      px      :     0.965712
      py      :     0.845236
      dz2     :     0.070617  d :     0.319436
      dxz     :     0.080232
      dyz     :     0.029591
      dx2y2   :     0.073308
      dxy     :     0.065688

 32 O s       :     3.537926  s :     3.537926
      pz      :     1.658641  p :     4.657168
      px      :     1.550659
      py      :     1.447867
      dz2     :     0.003693  d :     0.030031
      dxz     :     0.008647
      dyz     :     0.003294
      dx2y2   :     0.006319
      dxy     :     0.008078

 33 C s       :     2.970530  s :     2.970530
      pz      :     1.088007  p :     3.331492
      px      :     1.113086
      py      :     1.130399
      dz2     :     0.014698  d :     0.067253
      dxz     :     0.019661
      dyz     :     0.009252
      dx2y2   :     0.018171
      dxy     :     0.005471

 34 H s       :     0.859511  s :     0.859511

 35 H s       :     0.884850  s :     0.884850

 36 H s       :     0.878018  s :     0.878018



                      *****************************
                      * MAYER POPULATION ANALYSIS *
                      *****************************

  NA   - Mulliken gross atomic population
  ZA   - Total nuclear charge
  QA   - Mulliken gross atomic charge
  VA   - Mayer's total valence
  BVA  - Mayer's bonded valence
  FA   - Mayer's free valence

  ATOM       NA         ZA         QA         VA         BVA        FA
  0 Pd    17.6285    18.0000     0.3715     2.7810     2.7810     0.0000
  1 O      8.3361     8.0000    -0.3361     2.2175     2.2175    -0.0000
  2 O      8.3895     8.0000    -0.3895     2.1612     2.1612     0.0000
  3 C      5.6685     6.0000     0.3315     4.1746     4.1746    -0.0000
  4 C      6.3547     6.0000    -0.3547     3.8898     3.8898    -0.0000
  5 H      0.8559     1.0000     0.1441     0.9584     0.9584    -0.0000
  6 H      0.8521     1.0000     0.1479     0.9480     0.9480    -0.0000
  7 H      0.8633     1.0000     0.1367     0.9565     0.9565     0.0000
  8 O      8.4246     8.0000    -0.4246     2.1175     2.1175    -0.0000
  9 C      5.7286     6.0000     0.2714     4.2824     4.2824    -0.0000
 10 O      8.3205     8.0000    -0.3205     2.1568     2.1568     0.0000
 11 C      6.3728     6.0000    -0.3728     3.8637     3.8637    -0.0000
 12 H      0.8775     1.0000     0.1225     0.9575     0.9575    -0.0000
 13 H      0.8720     1.0000     0.1280     0.9507     0.9507    -0.0000
 14 H      0.8865     1.0000     0.1135     0.9675     0.9675     0.0000
 15 O      8.3548     8.0000    -0.3548     2.1814     2.1814    -0.0000
 16 Pd    17.5661    18.0000     0.4339     2.6387     2.6387    -0.0000
 17 O      8.3496     8.0000    -0.3496     2.1922     2.1922     0.0000
 18 C      5.6668     6.0000     0.3332     4.1316     4.1316     0.0000
 19 H      0.8666     1.0000     0.1334     0.9579     0.9579     0.0000
 20 H      0.8026     1.0000     0.1974     0.9672     0.9672     0.0000
 21 C      6.3383     6.0000    -0.3383     3.8790     3.8790     0.0000
 22 H      0.8642     1.0000     0.1358     0.9600     0.9600     0.0000
 23 O      8.3801     8.0000    -0.3801     2.1868     2.1868    -0.0000
 24 C      5.6717     6.0000     0.3283     4.1755     4.1755     0.0000
 25 O      8.3361     8.0000    -0.3361     2.2019     2.2019    -0.0000
 26 C      6.3497     6.0000    -0.3497     3.8882     3.8882     0.0000
 27 H      0.8569     1.0000     0.1431     0.9557     0.9557     0.0000
 28 H      0.8694     1.0000     0.1306     0.9587     0.9587     0.0000
 29 H      0.8416     1.0000     0.1584     0.9484     0.9484     0.0000
 30 O      8.4199     8.0000    -0.4199     2.1154     2.1154    -0.0000
 31 C      5.7202     6.0000     0.2798     4.2715     4.2715    -0.0000
 32 O      8.3172     8.0000    -0.3172     2.1595     2.1595     0.0000
 33 C      6.3584     6.0000    -0.3584     3.8651     3.8651    -0.0000
 34 H      0.8579     1.0000     0.1421     0.9596     0.9596    -0.0000
 35 H      0.8971     1.0000     0.1029     0.9707     0.9707    -0.0000
 36 H      0.8839     1.0000     0.1161     0.9547     0.9547    -0.0000

  Mayer bond orders larger than 0.100000
B(  0-Pd,  1-O ) :   0.4336 B(  0-Pd,  8-O ) :   0.6181 B(  0-Pd, 16-Pd) :   0.1572 
B(  0-Pd, 25-O ) :   0.4377 B(  0-Pd, 30-O ) :   0.6824 B(  0-Pd, 32-O ) :   0.1101 
B(  1-O ,  3-C ) :   1.5964 B(  2-O ,  3-C ) :   1.4259 B(  2-O , 16-Pd) :   0.5368 
B(  3-C ,  4-C ) :   1.0632 B(  4-C ,  5-H ) :   0.9472 B(  4-C ,  6-H ) :   0.9338 
B(  4-C ,  7-H ) :   0.9452 B(  8-O ,  9-C ) :   1.2995 B(  9-C , 10-O ) :   1.9119 
B(  9-C , 11-C ) :   1.0179 B( 11-C , 12-H ) :   0.9487 B( 11-C , 13-H ) :   0.9373 
B( 11-C , 14-H ) :   0.9521 B( 15-O , 16-Pd) :   0.5905 B( 15-O , 18-C ) :   1.4309 
B( 16-Pd, 17-O ) :   0.5522 B( 16-Pd, 23-O ) :   0.5534 B( 17-O , 18-C ) :   1.4661 
B( 18-C , 21-C ) :   1.1155 B( 19-H , 21-C ) :   0.9326 B( 20-H , 21-C ) :   0.9047 
B( 21-C , 22-H ) :   0.9344 B( 23-O , 24-C ) :   1.4390 B( 24-C , 25-O ) :   1.5750 
B( 24-C , 26-C ) :   1.0662 B( 26-C , 27-H ) :   0.9414 B( 26-C , 28-H ) :   0.9487 
B( 26-C , 29-H ) :   0.9320 B( 30-O , 31-C ) :   1.2544 B( 31-C , 32-O ) :   1.9179 
B( 31-C , 33-C ) :   1.0308 B( 33-C , 34-H ) :   0.9362 B( 33-C , 35-H ) :   0.9530 
B( 33-C , 36-H ) :   0.9451 

-------
TIMINGS
-------

Total SCF time: 0 days 0 hours 1 min 59 sec 

Total time                  ....     119.005 sec
Sum of individual times     ....     116.074 sec  ( 97.5%)

SCF preparation             ....       1.148 sec  (  1.0%)
Fock matrix formation       ....      82.943 sec  ( 69.7%)
  Startup                   ....       5.052 sec  (  6.1% of F)
  Split-RI-J                ....      17.193 sec  ( 20.7% of F)
  Chain of spheres X        ....      38.043 sec  ( 45.9% of F)
  XC integration            ....      15.352 sec  ( 18.5% of F)
    XC Preparation          ....       0.000 sec  (  0.0% of XC)
    Basis function eval.    ....       2.084 sec  ( 13.6% of XC)
    Density eval.           ....       1.153 sec  (  7.5% of XC)
    XC-Functional eval.     ....       0.314 sec  (  2.0% of XC)
    XC-Potential eval.      ....       0.943 sec  (  6.1% of XC)
Diagonalization             ....       0.000 sec  (  0.0%)
Density matrix formation    ....       8.844 sec  (  7.4%)
Total Energy calculation    ....       3.877 sec  (  3.3%)
Population analysis         ....       0.618 sec  (  0.5%)
Orbital Transformation      ....       0.745 sec  (  0.6%)
Orbital Orthonormalization  ....       0.000 sec  (  0.0%)
DIIS solution               ....      16.165 sec  ( 13.6%)
SOSCF solution              ....       1.734 sec  (  1.5%)
Finished LeanSCF after 119.3 sec

Maximum memory used throughout the entire LEANSCF-calculation: 46.6 MB


           ************************************************************
           *        Program running with 16 parallel MPI-processes    *
           *              working on a common directory               *
           ************************************************************

------------------------------------------------------------------------------
                         ORCA PROPERTY INTEGRAL CALCULATIONS
------------------------------------------------------------------------------

GBWName                                   ... CS_PdOAc_004_freq_01.gbw
Number of atoms                           ...     37
Number of basis functions                 ...    358
Max core memory                           ...   3500 MB

Dipole integrals                          ... YES
Quadrupole integrals                      ...  NO
Linear momentum integrals                 ...  NO
Angular momentum integrals                ...  NO
Higher moments length integrals           ...  NO
Higher moments velocity integrals         ...  NO
Kinetic energy integrals                  ...  NO
GIAO right hand sides                     ...  NO
GIAO dipole derivative integrals          ...  NO
SOC integrals                             ...  NO
EPR diamagnetic integrals (GIAO)          ...  NO
EPR gauge integrals                       ...  NO
Field gradient integrals                  ...  NO (   0 nuclei)
Spin-dipole/Fermi contact integrals       ...  NO (   0 nuclei)
Contact density integrals                 ...  NO (   0 nuclei)
[...]
 60:    989.99   0.003713   18.77  0.001170  ( 0.015081  0.026086  0.016205)
 61:   1017.73   0.001413    7.14  0.000433  ( 0.010193 -0.017778 -0.003658)
 62:   1021.83   0.001270    6.42  0.000388  (-0.005724 -0.006985  0.017499)
 63:   1022.50   0.001714    8.66  0.000523  ( 0.018867  0.001276 -0.012869)
 64:   1038.83   0.000341    1.72  0.000102  ( 0.008845 -0.004438  0.002110)
 65:   1040.79   0.000464    2.35  0.000139  ( 0.009821 -0.006382  0.001432)
 66:   1053.26   0.001596    8.06  0.000473  (-0.007318  0.001319 -0.020433)
 67:   1055.70   0.001573    7.95  0.000465  ( 0.002495 -0.021322  0.002054)
 68:   1063.75   0.003190   16.12  0.000936  (-0.007117 -0.012810  0.026852)
 69:   1065.37   0.000956    4.83  0.000280  (-0.006453 -0.014763 -0.004505)
 70:   1065.88   0.003667   18.53  0.001074  (-0.027732  0.016764  0.004860)
 71:   1332.84   0.016836   85.08  0.003942  (-0.034886 -0.035333  0.038424)
 72:   1342.37   0.012537   63.36  0.002915  ( 0.031690 -0.040622 -0.016130)
 73:   1364.18   0.000938    4.74  0.000215  ( 0.007666  0.007813  0.009736)
 74:   1365.27   0.000863    4.36  0.000197  (-0.005284  0.007742 -0.010460)
 75:   1367.24   0.001144    5.78  0.000261  (-0.002593 -0.012146 -0.010342)
 76:   1391.41   0.050733  256.38  0.011378  (-0.050777 -0.065295  0.067354)
 77:   1404.75   0.114009  576.15  0.025327  ( 0.068052 -0.111667 -0.090700)
 78:   1441.82   0.017204   86.94  0.003723  ( 0.046977  0.032766 -0.021048)
 79:   1446.32   0.005368   27.13  0.001158  ( 0.006207 -0.022692  0.024592)
 80:   1449.15   0.006330   31.99  0.001363  ( 0.030316 -0.018525  0.010048)
 81:   1451.00   0.004128   20.86  0.000888  ( 0.012753 -0.019349 -0.018728)
 82:   1457.62   0.006338   32.03  0.001357  ( 0.011563  0.034485 -0.005826)
 83:   1458.30   0.001067    5.39  0.000228  ( 0.004998  0.001624  0.014170)
 84:   1459.36   0.011824   59.75  0.002528  (-0.000854  0.016782 -0.047392)
 85:   1460.73   0.001716    8.67  0.000367  ( 0.000830  0.009562 -0.016567)
 86:   1463.06   0.003553   17.95  0.000758  (-0.002248 -0.004825  0.027008)
 87:   1465.98   0.003253   16.44  0.000692  ( 0.011285 -0.023463 -0.003824)
 88:   1489.21   0.052956  267.62  0.011097  ( 0.013755 -0.035154  0.098346)
 89:   1501.88   0.060061  303.52  0.012479  ( 0.062108  0.087981  0.029690)
 90:   1565.01   0.059490  300.64  0.011862  ( 0.049437  0.076080  0.060250)
 91:   1600.81   0.028587  144.47  0.005573  (-0.016623 -0.047701  0.054965)
 92:   1674.25   0.002998   15.15  0.000559  ( 0.006560 -0.006566  0.021743)
 93:   1733.49   0.219147  1107.48  0.039451  ( 0.173105 -0.092594 -0.030199)
 94:   1804.45   0.027251  137.71  0.004713  ( 0.013804 -0.063336 -0.022600)
 95:   1825.18   0.106663  539.03  0.018237  ( 0.132393  0.007226 -0.025628)
 96:   3038.90   0.002967   14.99  0.000305  ( 0.008228  0.014745  0.004423)
 97:   3044.20   0.003167   16.00  0.000325  (-0.003559  0.002769  0.017443)
 98:   3054.66   0.000857    4.33  0.000088  (-0.009113  0.000017 -0.002132)
 99:   3056.81   0.001558    7.87  0.000159  (-0.001073  0.001082  0.012520)
100:   3059.42   0.001318    6.66  0.000134  (-0.002473 -0.011257  0.001278)
101:   3130.53   0.003288   16.62  0.000328  ( 0.003786 -0.011826  0.013176)
102:   3140.41   0.001823    9.21  0.000181  (-0.003414  0.007208 -0.010839)
103:   3150.53   0.001020    5.16  0.000101  (-0.003483 -0.008060 -0.004897)
104:   3152.96   0.000631    3.19  0.000062  (-0.000424 -0.007670 -0.001861)
105:   3153.46   0.000624    3.15  0.000062  (-0.001495 -0.005878 -0.004999)
106:   3160.46   0.002917   14.74  0.000288  ( 0.012494 -0.010232 -0.005222)
107:   3160.76   0.004826   24.39  0.000477  ( 0.020572  0.003246 -0.006540)
108:   3182.41   0.001660    8.39  0.000163  (-0.008333  0.009533 -0.001575)
109:   3183.70   0.001042    5.27  0.000102  (-0.008470  0.005489 -0.000539)
110:   3184.13   0.000608    3.07  0.000060  (-0.001619 -0.002272  0.007194)

* The epsilon (eps) is given for a Dirac delta lineshape.
** The dipole moment derivative (T) already includes vibrational overlap.

The first frequency considered to be a vibration is 6
The total number of vibrations considered is 105


--------------------------
THERMOCHEMISTRY AT 298.15K
--------------------------

Temperature         ...   298.15 K
Pressure            ...     1.00 atm
Total Mass          ...   508.02 AMU
Quasi RRHO          ...     True
Cut-Off Frequency   ...     1.00 cm^-1

Throughout the following assumptions are being made:
  (1) The electronic state is orbitally nondegenerate
  (2) There are no thermally accessible electronically excited states
  (3) Hindered rotations indicated by low frequency modes are not
      treated as such but are treated as vibrations and this may
      cause some error
  (4) All equations used are the standard statistical mechanics
      equations for an ideal gas
  (5) All vibrations are strictly harmonic

freq.      22.51  E(vib)   ...       0.56 
freq.      23.43  E(vib)   ...       0.56 
freq.      36.85  E(vib)   ...       0.54 
freq.      39.10  E(vib)   ...       0.54 
freq.      41.85  E(vib)   ...       0.53 
freq.      42.56  E(vib)   ...       0.53 
freq.      45.47  E(vib)   ...       0.53 
freq.      51.34  E(vib)   ...       0.52 
freq.      58.85  E(vib)   ...       0.51 
freq.      62.57  E(vib)   ...       0.51 
freq.      69.34  E(vib)   ...       0.50 
freq.      93.99  E(vib)   ...       0.47 
freq.     101.24  E(vib)   ...       0.46 
freq.     102.73  E(vib)   ...       0.46 
freq.     111.54  E(vib)   ...       0.45 
freq.     120.70  E(vib)   ...       0.44 
freq.     142.98  E(vib)   ...       0.41 
freq.     146.23  E(vib)   ...       0.41 
freq.     154.15  E(vib)   ...       0.40 
freq.     162.79  E(vib)   ...       0.39 
freq.     169.11  E(vib)   ...       0.38 
freq.     193.21  E(vib)   ...       0.36 
freq.     196.72  E(vib)   ...       0.36 
freq.     211.31  E(vib)   ...       0.34 
freq.     213.20  E(vib)   ...       0.34 
freq.     224.26  E(vib)   ...       0.33 
freq.     246.18  E(vib)   ...       0.31 
freq.     254.77  E(vib)   ...       0.30 
freq.     264.83  E(vib)   ...       0.29 
freq.     289.37  E(vib)   ...       0.27 
freq.     303.16  E(vib)   ...       0.26 
freq.     330.89  E(vib)   ...       0.24 
freq.     334.49  E(vib)   ...       0.24 
freq.     367.29  E(vib)   ...       0.21 
freq.     392.46  E(vib)   ...       0.20 
freq.     501.39  E(vib)   ...       0.14 
freq.     526.74  E(vib)   ...       0.13 
freq.     539.12  E(vib)   ...       0.12 
freq.     577.50  E(vib)   ...       0.11 
freq.     580.70  E(vib)   ...       0.11 
freq.     603.98  E(vib)   ...       0.10 
freq.     607.34  E(vib)   ...       0.10 
freq.     611.00  E(vib)   ...       0.10 
freq.     624.93  E(vib)   ...       0.09 
freq.     632.27  E(vib)   ...       0.09 
freq.     701.95  E(vib)   ...       0.07 
freq.     709.56  E(vib)   ...       0.07 
freq.     717.00  E(vib)   ...       0.07 
freq.     718.48  E(vib)   ...       0.07 
freq.     719.51  E(vib)   ...       0.07 
freq.     954.08  E(vib)   ...       0.03 
freq.     956.58  E(vib)   ...       0.03 
freq.     982.70  E(vib)   ...       0.02 
freq.     985.56  E(vib)   ...       0.02 
freq.     989.99  E(vib)   ...       0.02 
freq.    1017.73  E(vib)   ...       0.02 
freq.    1021.83  E(vib)   ...       0.02 
freq.    1022.50  E(vib)   ...       0.02 
freq.    1038.83  E(vib)   ...       0.02 
freq.    1040.79  E(vib)   ...       0.02 
freq.    1053.26  E(vib)   ...       0.02 
freq.    1055.70  E(vib)   ...       0.02 
freq.    1063.75  E(vib)   ...       0.02 
freq.    1065.37  E(vib)   ...       0.02 
freq.    1065.88  E(vib)   ...       0.02 
freq.    1332.84  E(vib)   ...       0.01 
freq.    1342.37  E(vib)   ...       0.01 
freq.    1364.18  E(vib)   ...       0.01 
freq.    1365.27  E(vib)   ...       0.01 
freq.    1367.24  E(vib)   ...       0.01 
freq.    1391.41  E(vib)   ...       0.00 
freq.    1404.75  E(vib)   ...       0.00 
freq.    1441.82  E(vib)   ...       0.00 
freq.    1446.32  E(vib)   ...       0.00 
freq.    1449.15  E(vib)   ...       0.00 
freq.    1451.00  E(vib)   ...       0.00 
freq.    1457.62  E(vib)   ...       0.00 
freq.    1458.30  E(vib)   ...       0.00 
freq.    1459.36  E(vib)   ...       0.00 
freq.    1460.73  E(vib)   ...       0.00 
freq.    1463.06  E(vib)   ...       0.00 
freq.    1465.98  E(vib)   ...       0.00 
freq.    1489.21  E(vib)   ...       0.00 
freq.    1501.88  E(vib)   ...       0.00 
freq.    1565.01  E(vib)   ...       0.00 
freq.    1600.81  E(vib)   ...       0.00 
freq.    1674.25  E(vib)   ...       0.00 
freq.    1733.49  E(vib)   ...       0.00 
freq.    1804.45  E(vib)   ...       0.00 
freq.    1825.18  E(vib)   ...       0.00 
freq.    3038.90  E(vib)   ...       0.00 
freq.    3044.20  E(vib)   ...       0.00 
freq.    3054.66  E(vib)   ...       0.00 
freq.    3056.81  E(vib)   ...       0.00 
freq.    3059.42  E(vib)   ...       0.00 
freq.    3130.53  E(vib)   ...       0.00 
freq.    3140.41  E(vib)   ...       0.00 
freq.    3150.53  E(vib)   ...       0.00 
freq.    3152.96  E(vib)   ...       0.00 
freq.    3153.46  E(vib)   ...       0.00 
freq.    3160.46  E(vib)   ...       0.00 
freq.    3160.76  E(vib)   ...       0.00 
freq.    3182.41  E(vib)   ...       0.00 
freq.    3183.70  E(vib)   ...       0.00 
freq.    3184.13  E(vib)   ...       0.00 

------------
INNER ENERGY
------------

The inner energy is: U= E(el) + E(ZPE) + E(vib) + E(rot) + E(trans)
    E(el)   - is the total energy from the electronic structure calculation
              = E(kin-el) + E(nuc-el) + E(el-el) + E(nuc-nuc)
    E(ZPE)  - the the zero temperature vibrational energy from the frequency calculation
    E(vib)  - the the finite temperature correction to E(ZPE) due to population
              of excited vibrational states
    E(rot)  - is the rotational thermal energy
    E(trans)- is the translational thermal energy

Summary of contributions to the inner energy U:
Electronic energy                ...  -1396.26435318 Eh
Zero point energy                ...      0.26079670 Eh     163.65 kcal/mol
Thermal vibrational correction   ...      0.02547093 Eh      15.98 kcal/mol
Thermal rotational correction    ...      0.00141627 Eh       0.89 kcal/mol
Thermal translational correction ...      0.00141627 Eh       0.89 kcal/mol
-----------------------------------------------------------------------
Total thermal energy                  -1395.97525300 Eh


Summary of corrections to the electronic energy:
(perhaps to be used in another calculation)
Total thermal correction                  0.02830347 Eh      17.76 kcal/mol
Non-thermal (ZPE) correction              0.26079670 Eh     163.65 kcal/mol
-----------------------------------------------------------------------
Total correction                          0.28910018 Eh     181.41 kcal/mol


--------
ENTHALPY
--------

The enthalpy is H = U + kB*T
                kB is Boltzmann's constant
Total thermal energy              ...  -1395.97525300 Eh 
Thermal Enthalpy correction       ...      0.00094421 Eh       0.59 kcal/mol
-----------------------------------------------------------------------
Total Enthalpy                    ...  -1395.97430879 Eh


Note: Only C1 symmetry has been detected, increase convergence thresholds 
      if your molecule has a higher symmetry. Symmetry factor of 1.0 is   
      used for the rotational entropy correction. 
 

Note: Rotational entropy computed according to Herzberg 
Infrared and Raman Spectra, Chapter V,1, Van Nostrand Reinhold, 1945 
Point Group:  C1, Symmetry Number:   1  
Rotational constants in cm-1:     0.008338     0.006442     0.005563 

Vibrational entropy computed according to the QRRHO of S. Grimme
Chem.Eur.J. 2012 18 9955 using a reference frequency of 100.0 cm-1


-------
ENTROPY
-------

The entropy contributions are T*S = T*(S(el)+S(vib)+S(rot)+S(trans))
     S(el)   - electronic entropy
     S(vib)  - vibrational entropy
     S(rot)  - rotational entropy
     S(trans)- translational entropy
The entropies will be listed as multiplied by the temperature to get
units of energy

Electronic entropy                ...      0.00000000 Eh      0.00 kcal/mol
Vibrational entropy               ...      0.04791364 Eh     30.07 kcal/mol
Rotational entropy                ...      0.01660324 Eh     10.42 kcal/mol
Translational entropy             ...      0.02117318 Eh     13.29 kcal/mol
-----------------------------------------------------------------------
Final entropy term                ...      0.08569006 Eh     53.77 kcal/mol

In case the symmetry of your molecule has not been determined correctly
or in case you have a reason to use a different symmetry number we print 
out the resulting rotational entropy values for sn=1,12:

 non-linear molecules -----------------------------------
|  sn= 1 | S(rot)=       0.01660324 Eh     10.42 kcal/mol|
|  sn= 2 | S(rot)=       0.01594878 Eh     10.01 kcal/mol|
|  sn= 3 | S(rot)=       0.01556595 Eh      9.77 kcal/mol|
|  sn= 4 | S(rot)=       0.01529433 Eh      9.60 kcal/mol|
|  sn= 5 | S(rot)=       0.01508364 Eh      9.47 kcal/mol|
|  sn= 6 | S(rot)=       0.01491150 Eh      9.36 kcal/mol|
|  sn= 7 | S(rot)=       0.01476595 Eh      9.27 kcal/mol|
|  sn= 8 | S(rot)=       0.01463987 Eh      9.19 kcal/mol|
|  sn= 9 | S(rot)=       0.01452866 Eh      9.12 kcal/mol|
|  sn=10 | S(rot)=       0.01442918 Eh      9.05 kcal/mol|
|  sn=11 | S(rot)=       0.01433919 Eh      9.00 kcal/mol|
|  sn=12 | S(rot)=       0.01425704 Eh      8.95 kcal/mol|
 linear molecules ---------------------------------------
|  Dinfh | S(rot)=       0.01022760 Eh      6.42 kcal/mol|
|  Cinfv | S(rot)=       0.01088206 Eh      6.83 kcal/mol|
 --------------------------------------------------------


-------------------
GIBBS FREE ENERGY
-------------------

The Gibbs free energy is G = H - T*S

Total enthalpy                    ...  -1395.97430879 Eh 
Total entropy correction          ...     -0.08569006 Eh    -53.77 kcal/mol
-----------------------------------------------------------------------
Final Gibbs free energy         ...  -1396.05999885 Eh

For completeness - the Gibbs free energy minus the electronic energy
G-E(el)                           ...      0.20435433 Eh    128.23 kcal/mol


Maximum memory used throughout the entire PROP-calculation: 209.6 MB

--------------------------------
SUGGESTED CITATIONS FOR THIS RUN
--------------------------------

Below you find a list of papers that are relevant to this ORCA run
We neither can nor want to force you to cite these papers, but we appreciate if you do
You receive ORCA, which is the product of decades of hard work by many enthusiastic individuals, for free
The only thing we kindly ask in return is that you cite our papers,
We deeply appreciate it, if you show your appreciation for ORCA by not just citing the generic ORCA reference.

Please note that relegating all ORCA citations to the supporting information does *not* help us.
SI sections are not indexed - citations you put there will not count into any citation statistics
But we need these citations in order to attract the funding resources that allow us to do what we are doing

Therefore, if you are a happy ORCA user, please consider citing a few of the papers listed below in the main body of your paper

In addition to the list printed below, the program has created the file CS_PdOAc_004_freq_01.bibtex that contains the list in bibtex format
You can import this file easily into all common literature databanks and citation aid programs


List of essential papers. We consider these as the minimum necessary citations

  1. Neese,F.
     Software update: the ORCA program system, version 5.0
     WIRES Comput. Molec. Sci., 2022 12(1)e1606
     doi.org/10.1002/wcms.1606

List of papers to cite with high priority. The work reported in these papers was absolutely
necessary for this run to complete.
Our perspective: the developers of density functionals and basis sets usually get cited in chemistry papers
Good! But without the algorithms to do something with them, the functionals or basis sets would not do anything.
Hence, in our opinion, the algorithm design and method developments papers are equally worthy of getting cited

  1. Neese,F.
     An improvement of the resolution of the identity approximation for the formation of the Coulomb matrix
     J. Comp. Chem., 2003 24(14)1740-1747
     doi.org/10.1002/jcc.10318
  2. Neese,F.; Wennmohs,F.; Hansen,A.; Becker,U.
     Efficient, approximate and parallel Hartree-Fock and hybrid DFT calculations. A 'chain-of-spheres' algorithm for the Hartree-Fock exchange
     Chem. Phys., 2009 356(1-3)98-109
     doi.org/10.1016/j.chemphys.2008.10.036
  3. Bykov,D.; Petrenko,T.; Izsak,R.; Kossmann,S.; Becker,U.; Valeev,E.; Neese,F.
     Efficient implementation of the analytic second derivatives of Hartree-Fock and hybrid DFT energies: a detailed analysis of different approximations
     Molec. Phys., 2015 113 1961-1977
     doi.org/10.1080/00268976.2015.1025114
  4. Helmich-Paris,B.; de Souza,B.; Neese,F.; Izsák,R.
     An improved chain of spheres for exchange algorithm
     J. Chem. Phys., 2021 155 104109
     doi.org/doi: 10.1063/5.0058766.
  5. Neese,F.
     The SHARK Integral Generation and Digestion System
     J. Comp. Chem., 2022  1-16
     doi.org/10.1002/jcc.26942
  6. Grimme,S.; Antony,J.; Ehrlich,S.; Krieg,H.
     A consistent and accurate ab initio parametrization of density functional dispersion correction (DFT-D) for the 94 elements H-Pu
     J. Chem. Phys., 2010 132 154104-XXXX
     doi.org/10.1063/1.3382344
  7. Grimme,S.; Ehrlich,S.; Goerigk,L.
     Effect of the damping function in dispersion corrected density functional theory
     J. Comput. Chem., 2011 32(7)1456-1465
     doi.org/10.1002/jcc.21759

List of suggested additional citations. These are papers that are important in the 'surrounding' of 
of this run, or papers that preceded the highly important papers. If you like your results we are grateful for a citation.

  1. Izsak,R.; Neese,F.
     An overlap fitted chain of spheres exchange method
     J. Chem. Phys., 2011 135 144105
     doi.org/10.1063/1.3646921
  2. Izsak,R.; Hansen,A.; Neese,F.
     The resolution of identity and chain of spheres approximations for the LPNO-CCSD singles Fock term
     Molec. Phys., 2012 110 2413-2417
     doi.org/10.1080/00268976.2012.687466
  3. Neese,F.
     The ORCA program system
     WIRES Comput. Molec. Sci., 2012 2(1)73-78
     doi.org/10.1002/wcms.81
  4. Izsak,R.; Neese,F.; Klopper,W.
     Robust fitting techniques in the chain of spheres approximation to the Fock exchange: The role of the complementary space
     J. Chem. Phys., 2013 139 
     doi.org/10.1063/1.4819264
  5. Neese,F.
     Software update: the ORCA program system, version 4.0
     WIRES Comput. Molec. Sci., 2018 8(1)1-6
     doi.org/10.1002/wcms.1327
  6. Neese,F.; Wennmohs,F.; Becker,U.; Riplinger,C.
     The ORCA quantum chemistry program package
     J. Chem. Phys., 2020 152 Art. No. L224108
     doi.org/10.1063/5.0004608

List of optional additional citations

  1. Neese,F.
     Approximate second-order SCF convergence for spin unrestricted wavefunctions
     Chem. Phys. Lett., 2000 325(1-3)93-98
     doi.org/10.1016/s0009-2614(00)00662-x

Timings for individual modules:

Sum of individual times          ...      891.343 sec (=  14.856 min)
Startup calculation              ...        7.966 sec (=   0.133 min)   0.9 %
SCF iterations                   ...      136.231 sec (=   2.271 min)  15.3 %
Property integrals               ...      190.446 sec (=   3.174 min)  21.4 %
SCF Response                     ...      314.070 sec (=   5.235 min)  35.2 %
Property calculations            ...      242.630 sec (=   4.044 min)  27.2 %
                             ****ORCA TERMINATED NORMALLY****
TOTAL RUN TIME: 0 days 0 hours 14 minutes 55 seconds 198 msec
