
                                 *****************
                                 * O   R   C   A *
                                 *****************

                                            #,                                       
                                            ###                                      
                                            ####                                     
                                            #####                                    
                                            ######                                   
                                           ########,                                 
                                     ,,################,,,,,                         
                               ,,#################################,,                 
                          ,,##########################################,,             
                       ,#########################################, ''#####,          
                    ,#############################################,,   '####,        
                  ,##################################################,,,,####,       
                ,###########''''           ''''###############################       
              ,#####''   ,,,,##########,,,,          '''####'''          '####       
            ,##' ,,,,###########################,,,                        '##       
           ' ,,###''''                  '''############,,,                           
         ,,##''                                '''############,,,,        ,,,,,,###''
      ,#''                                            '''#######################'''  
     '                                                          ''''####''''         
             ,#######,   #######,   ,#######,      ##                                
            ,#'     '#,  ##    ##  ,#'     '#,    #''#        ,####,   ,####,        
            ##       ##  ##   ,#'  ##            #'  '#       #'       #'  '#        
            ##       ##  #######   ##           ,######,      #####,   #    #        
            '#,     ,#'  ##    ##  '#,     ,#' ,#      #,     #,   #   #,  ,#        
             '#######'   ##     ##  '#######'  #'      '#     '####' # '####'        



                #########################################################
                #                        -***-                          #
                #          Department of theory and spectroscopy        #
                #                                                       #
                #                      Frank Neese                      #
                #                                                       #
                #     Directorship, Architecture, Infrastructure        #
                #                    SHARK, DRIVERS                     #
                #        Core code/Algorithms in most modules           #
                #                                                       #
                #        Max Planck Institute fuer Kohlenforschung      #
                #                Kaiser Wilhelm Platz 1                 #
                #                 D-45470 Muelheim/Ruhr                 #
                #                      Germany                          #
                #                                                       #
                #                  All rights reserved                  #
                #                        -***-                          #
                #########################################################


                         Program Version 6.0.0  -   RELEASE  -


 With contributions from (in alphabetic order):
   Daniel Aravena         : Magnetic Suceptibility
   Michael Atanasov       : Ab Initio Ligand Field Theory (pilot matlab implementation)
   Alexander A. Auer      : GIAO ZORA, VPT2 properties, NMR spectrum
   Ute Becker             : All parallelization in ORCA, NUMFREQ, NUMCALC
   Giovanni Bistoni       : ED, misc. LED, open-shell LED, HFLD
   Martin Brehm           : Molecular dynamics
   Dmytro Bykov           : pre 5.0 version of the SCF Hessian
   Marcos Casanova-Páez   : Triplet and SCS-CIS(D). UHF-(DLPNO)-IP/EA/STEOM-CCSD. UHF-CVS-IP/STEOM-CCSD
   Vijay G. Chilkuri      : MRCI spin determinant printing, contributions to CSF-ICE
   Pauline Colinet        : FMM embedding
   Dipayan Datta          : RHF DLPNO-CCSD density
   Achintya Kumar Dutta   : EOM-CC, STEOM-CC
   Nicolas Foglia         : Exact transition moments, OPA infrastructure, MCD improvements
   Dmitry Ganyushin       : Spin-Orbit,Spin-Spin,Magnetic field MRCI
   Miquel Garcia          : C-PCM and meta-GGA Hessian, CCSD/C-PCM, Gaussian charge scheme
   Tiago L. C. Gouveia    : GS-ROHF, GS-ROCIS
   Yang Guo               : DLPNO-NEVPT2, F12-NEVPT2, CIM, IAO-localization
   Andreas Hansen         : Spin unrestricted coupled pair/coupled cluster methods
   Ingolf Harden          : AUTO-CI MPn and infrastructure 
   Benjamin Helmich-Paris : MC-RPA, TRAH-(SCF,CASSCF), AVAS, COSX integrals, SCF dyn. polar.
   Lee Huntington         : MR-EOM, pCC
   Robert Izsak           : Overlap fitted RIJCOSX, COSX-SCS-MP3, EOM
   Riya Kayal             : Wick's Theorem for AUTO-CI, AUTO-CI UHF-CCSDT
   Emily Kempfer          : AUTO-CI, RHF CISDT and CCSDT
   Christian Kollmar      : KDIIS, OOCD, Brueckner-CCSD(T), CCSD density, CASPT2, CASPT2-K, improved NEVPT2
   Axel Koslowski         : Symmetry handling
   Simone Kossmann        : Meta GGA functionals, TD-DFT gradient, OOMP2, (MP2 Hessian; deprecated post 5.0)
   Lucas Lang             : DCDCAS
   Marvin Lechner         : AUTO-CI (C++ implementation), FIC-MRCC
   Spencer Leger          : CASSCF response
   Dagmar Lenk            : GEPOL surface, SMD, ORCA-2-JSON
   Dimitrios Liakos       : Extrapolation schemes; Compound Job, initial MDCI parallelization
   Dimitrios Manganas     : Further ROCIS development; embedding schemes. LFT, Crystal Embedding
   Dimitrios Pantazis     : SARC Basis sets
   Anastasios Papadopoulos: AUTO-CI, single reference methods and gradients
   Taras Petrenko         : pre 6.0 DFT Hessian and TD-DFT gradient, (ASA, deprecated), ECA, 1-Electron XAS/XES, NRVS
   Peter Pinski           : DLPNO-MP2, DLPNO-MP2 Gradient
   Christoph Reimann      : Effective Core Potentials
   Marius Retegan         : Local ZFS, SOC
   Christoph Riplinger    : Optimizer, TS searches, QM/MM, DLPNO-CCSD(T), (RO)-DLPNO pert. Triples
   Michael Roemelt        : Original ROCIS implementation
   Masaaki Saitow         : Open-shell DLPNO-CCSD energy and density
   Barbara Sandhoefer     : DKH picture change effects
   Kantharuban Sivalingam : CASSCF convergence/infrastructure, NEVPT2 and variants, FIC-MRCI
   Bernardo de Souza      : ESD, SOC TD-DFT
   Georgi Stoychev        : AutoAux, RI-MP2 NMR, DLPNO-MP2 response, X2C
   Van Anh Tran           : RI-MP2 g-tensors
   Willem Van den Heuvel  : Paramagnetic NMR
   Zikuan Wang            : NOTCH, Electric field optimization 
   Frank Wennmohs         : Technical directorship and infrastructure
   Hang Xu                : AUTO-CI-Response properties 


 We gratefully acknowledge several colleagues who have allowed us to
 interface, adapt or use parts of their codes:
   Stefan Grimme, W. Hujo, H. Kruse, P. Pracht,  : VdW corrections, initial TS optimization,
                  C. Bannwarth, S. Ehlert,         DFT functionals, gCP, sTDA/sTD-DF
                  L. Wittmann, M. Mueller
   Ed Valeev, F. Pavosevic, A. Kumar             : LibInt (2-el integral package), F12 methods
   Garnet Chan, S. Sharma, J. Yang, R. Olivares  : DMRG
   Ulf Ekstrom                                   : XCFun DFT Library
   Mihaly Kallay                                 : mrcc  (arbitrary order and MRCC methods)
   Frank Weinhold                                : gennbo (NPA and NBO analysis)
   Simon Mueller                                 : openCOSMO-RS
   Christopher J. Cramer and Donald G. Truhlar   : smd solvation model
   Lars Goerigk                                  : TD-DFT with DH, B97 family of functionals
   V. Asgeirsson, H. Jonsson                     : NEB implementation
   FAccTs GmbH                                   : IRC, NEB, NEB-TS, DLPNO-Multilevel, CI-OPT
                                                   MM, QMMM, 2- and 3-layer-ONIOM, Crystal-QMMM,
                                                   LR-CPCM, SF, NACMEs, symmetry and pop. for TD-DFT,
                                                   nearIR, NL-DFT gradient (VV10), updates on ESD,
                                                   ML-optimized integration grids, MBIS, APM,
                                                   GOAT, DOCKER, SOLVATOR, interface openCOSMO-RS
   S Lehtola, MJT Oliveira, MAL Marques          : LibXC Library
   Liviu Ungur et al                             : ANISO software


 Your calculation uses the libint2 library for the computation of 2-el integrals
 For citations please refer to: http://libint.valeyev.net

 Your ORCA version has been built with support for libXC version: 6.2.2
 For citations please refer to: https://libxc.gitlab.io

 This ORCA versions uses:
   CBLAS   interface :  Fast vector & matrix operations
   LAPACKE interface :  Fast linear algebra routines
   SCALAPACK package :  Parallel linear algebra routines
   Shared memory     :  Shared parallel matrices
   BLAS/LAPACK       :  OpenBLAS 0.3.27  USE64BITINT DYNAMIC_ARCH NO_AFFINITY Sandybridge SINGLE_THREADED
        Core in use  :  Sandybridge
   Copyright (c) 2011-2014, The OpenBLAS Project


NOTE: MaxCore=3500 MB was set to SCF,MP2,MDCI,CIPSI,MRCI and CIS
      => If you want to overwrite this, your respective input block should be placed after the MaxCore statement
Your calculation utilizes the atom-pairwise dispersion correction
with the Becke-Johnson damping scheme (D3BJ)


Warning: RI is on but no J-basis has been assigned. Assigning Def2/J (nothing to worry about!)
================================================================================

----- Orbital basis set information -----
Your calculation utilizes the basis: def2-SV(P)
   F. Weigend and R. Ahlrichs, Phys. Chem. Chem. Phys. 7, 3297 (2005).

----- AuxJ basis set information -----
Your calculation utilizes the auxiliary basis: def2/J
   F. Weigend, Phys. Chem. Chem. Phys. 8, 1057 (2006).

================================================================================
                                        WARNINGS
                       Please study these warnings very carefully!
================================================================================


================================================================================
                                       INPUT FILE
================================================================================
NAME = CS_PdOAc_006_freq_01.inp
|  1> !PBE0 def2-SV(p) freq d3 TightSCF SlowConv RIJCOSX defgrid2
|  2> 
|  3> %pal
|  4> nprocs 4
|  5> nprocs_group 2
|  6> end
|  7> 
|  8> %scf
|  9> MaxIter 1500
| 10> end
| 11> 
| 12> %maxcore 3500
| 13> 
| 14>  
| 15> 
| 16> * xyz 0 1
| 17>   O          -0.29337834737891      0.03471851820976      0.24047516870125
| 18>   C           0.75293780261439     -0.78317840469775      0.45109594493049
| 19>   O           1.77714897841705     -0.69028719883864     -0.16966802191010
| 20>   C           0.46156459990035     -1.78385145482332      1.53073595076212
| 21>   H           0.21871271639251     -1.26155552193283      2.47129267410843
| 22>   H          -0.42021473257458     -2.38701473417976      1.25651203332911
| 23>   H           1.33389312976003     -2.43525782944194      1.67527504778182
| 24>   H          -0.02691464813084      0.65299033170450     -0.46543474370312
| 25> *
| 26> 
| 27>                          ****END OF INPUT****
================================================================================

                       ****************************
                       * Single Point Calculation *
                       ****************************

---------------------------------
CARTESIAN COORDINATES (ANGSTROEM)
---------------------------------
  O     -0.293378    0.034719    0.240475
  C      0.752938   -0.783178    0.451096
  O      1.777149   -0.690287   -0.169668
  C      0.461565   -1.783851    1.530736
  H      0.218713   -1.261556    2.471293
  H     -0.420215   -2.387015    1.256512
  H      1.333893   -2.435258    1.675275
  H     -0.026915    0.652990   -0.465435

----------------------------
CARTESIAN COORDINATES (A.U.)
----------------------------
  NO LB      ZA    FRAG     MASS         X           Y           Z
   0 O     8.0000    0    15.999   -0.554405    0.065608    0.454432
   1 C     6.0000    0    12.011    1.422846   -1.479993    0.852448
   2 O     8.0000    0    15.999    3.358325   -1.304454   -0.320626
   3 C     6.0000    0    12.011    0.872231   -3.370991    2.892672
   4 H     1.0000    0     1.008    0.413307   -2.383994    4.670066
   5 H     1.0000    0     1.008   -0.794091   -4.510804    2.374464
   6 H     1.0000    0     1.008    2.520693   -4.601970    3.165811
   7 H     1.0000    0     1.008   -0.050861    1.233973   -0.879544

--------------------------------
INTERNAL COORDINATES (ANGSTROEM)
--------------------------------
 O      0   0   0     0.000000000000     0.00000000     0.00000000
 C      1   0   0     1.344653848995     0.00000000     0.00000000
 O      2   1   0     1.201243194067   122.37605132     0.00000000
 C      2   1   3     1.500622350460   111.54398085   179.96105844
 H      4   2   1     1.102912974205   109.90841528   301.03240716
 H      4   2   1     1.102968489866   109.93893574    58.74840532
 H      4   2   1     1.098261753622   109.63218722   179.89342106
 H      1   2   3     0.975485388312   106.63747128   359.77187208

---------------------------
INTERNAL COORDINATES (A.U.)
---------------------------
 O      0   0   0     0.000000000000     0.00000000     0.00000000
 C      1   0   0     2.541027519524     0.00000000     0.00000000
 O      2   1   0     2.270020657024   122.37605132     0.00000000
 C      2   1   3     2.835765272810   111.54398085   179.96105844
 H      4   2   1     2.084203470796   109.90841528   301.03240716
 H      4   2   1     2.084308380191   109.93893574    58.74840532
 H      4   2   1     2.075413937705   109.63218722   179.89342106
 H      1   2   3     1.843400231551   106.63747128   359.77187208

---------------------
BASIS SET INFORMATION
---------------------
There are 3 groups of distinct atoms

 Group   1 Type O   : 7s4p1d contracted to 3s2p1d pattern {511/31/1}
 Group   2 Type C   : 7s4p1d contracted to 3s2p1d pattern {511/31/1}
 Group   3 Type H   : 4s contracted to 2s pattern {31}

Atom   0O    basis set group =>   1
Atom   1C    basis set group =>   2
Atom   2O    basis set group =>   1
Atom   3C    basis set group =>   2
Atom   4H    basis set group =>   3
Atom   5H    basis set group =>   3
Atom   6H    basis set group =>   3
Atom   7H    basis set group =>   3
---------------------------------
AUXILIARY/J BASIS SET INFORMATION
---------------------------------
There are 3 groups of distinct atoms

 Group   1 Type O   : 12s5p4d2f1g contracted to 6s4p3d1f1g pattern {711111/2111/211/2/1}
 Group   2 Type C   : 12s5p4d2f1g contracted to 6s4p3d1f1g pattern {711111/2111/211/2/1}
 Group   3 Type H   : 5s2p1d contracted to 3s1p1d pattern {311/2/1}

Atom   0O    basis set group =>   1
Atom   1C    basis set group =>   2
Atom   2O    basis set group =>   1
Atom   3C    basis set group =>   2
Atom   4H    basis set group =>   3
Atom   5H    basis set group =>   3
Atom   6H    basis set group =>   3
Atom   7H    basis set group =>   3


           ************************************************************
           *        Program running with 4 parallel MPI-processes     *
           *              working on a common directory               *
           ************************************************************
------------------------------------------------------------------------------
                             ORCA STARTUP CALCULATIONS
                           -- RI-GTO INTEGRALS CHOSEN --
------------------------------------------------------------------------------
------------------------------------------------------------------------------
                   ___                                                        
                  /   \      - P O W E R E D   B Y -                         
                 /     \                                                     
                 |  |  |   _    _      __       _____    __    __             
                 |  |  |  | |  | |    /  \     |  _  \  |  |  /  |          
                  \  \/   | |  | |   /    \    | | | |  |  | /  /          
                 / \  \   | |__| |  /  /\  \   | |_| |  |  |/  /          
                |  |  |   |  __  | /  /__\  \  |    /   |      \           
                |  |  |   | |  | | |   __   |  |    \   |  |\   \          
                \     /   | |  | | |  |  |  |  | |\  \  |  | \   \       
                 \___/    |_|  |_| |__|  |__|  |_| \__\ |__|  \__/        
                                                                              
                      - O R C A' S   B I G   F R I E N D -                    
                                      &                                       
                       - I N T E G R A L  F E E D E R -                       
                                                                              
 v1 FN, 2020, v2 2021, v3 2022-2024                                           
------------------------------------------------------------------------------


----------------------
SHARK INTEGRAL PACKAGE
----------------------

Number of atoms                             ...      8
Number of basis functions                   ...     64
Number of shells                            ...     32
Maximum angular momentum                    ...      2
Integral batch strategy                     ... SHARK/LIBINT Hybrid
RI-J (if used) integral strategy            ... SPLIT-RIJ (Revised 2003 algorithm where possible)
Printlevel                                  ...      1
Contraction scheme used                     ... SEGMENTED contraction
Prescreening option                         ... SCHWARTZ
   Thresh                                   ... 2.500e-11
   Tcut                                     ... 2.500e-12
   Tpresel                                  ... 2.500e-12 
Coulomb Range Separation                    ... NOT USED
Exchange Range Separation                   ... NOT USED
Multipole approximations                    ... NOT USED
Finite Nucleus Model                        ... NOT USED
CABS basis                                  ... NOT available
Auxiliary Coulomb fitting basis             ... AVAILABLE
   # of basis functions in Aux-J            ...    240
   # of shells in Aux-J                     ...     80
   Maximum angular momentum in Aux-J        ...      4
Auxiliary J/K fitting basis                 ... NOT available
Auxiliary Correlation fitting basis         ... NOT available
Auxiliary 'external' fitting basis          ... NOT available

Checking pre-screening integrals            ... done (  0.0 sec) Dimension = 32
Check shell pair data                       ... done (  0.0 sec)
Shell pair information
Shell pair cut-off parameter TPreSel        ...   2.5e-12
Total number of shell pairs                 ...       528
Shell pairs after pre-screening             ...       525
Total number of primitive shell pairs       ...      2144
Primitive shell pairs kept                  ...      1737
          la=0 lb=0:    207 shell pairs
          la=1 lb=0:    160 shell pairs
          la=1 lb=1:     36 shell pairs
          la=2 lb=0:     80 shell pairs
          la=2 lb=1:     32 shell pairs
          la=2 lb=2:     10 shell pairs

Calculating one electron integrals          ... done (  0.0 sec)
Calculating RI/J V-Matrix + Cholesky decomp.... done (  0.0 sec)
Calculating Nuclear repulsion               ... done (  0.0 sec) ENN=    121.399630613160 Eh

Diagonalization of the overlap matrix:
Smallest eigenvalue                        ... 3.726e-03
Time for diagonalization                   ...    0.001 sec
Threshold for overlap eigenvalues          ... 1.000e-07
Number of eigenvalues below threshold      ... 0
Time for construction of square roots      ...    0.010 sec
Total time needed                          ...    0.031 sec

-------------------
DFT GRID GENERATION
-------------------

General Integration Accuracy     IntAcc      ... 4.388
Radial Grid Type                 RadialGrid  ... OptM3 with GC (2021)
Angular Grid (max. ang.)         AngularGrid ... 4 (Lebedev-302)
Angular grid pruning method      GridPruning ... 4 (adaptive)
Weight generation scheme         WeightScheme... mBecke (2022)
Basis function cutoff            BFCut       ... 1.0000e-11
Integration weight cutoff        WCut        ... 1.0000e-14
Partially contracted basis set               ... off
Rotationally invariant grid construction     ... off
Angular grids for H and He will be reduced by one unit

Total number of grid points                  ...    37426
Total number of batches                      ...      589
Average number of points per batch           ...       63
Average number of grid points per atom       ...     4678

--------------------
COSX GRID GENERATION
--------------------

GRIDX 1
-------
General Integration Accuracy     IntAcc      ... 3.816
Radial Grid Type                 RadialGrid  ... OptM3 with GC (2021)
Angular Grid (max. ang.)         AngularGrid ... 1 (Lebedev-50)
Angular grid pruning method      GridPruning ... 4 (adaptive)
Weight generation scheme         WeightScheme... mBecke (2022)
Basis function cutoff            BFCut       ... 1.0000e-11
Integration weight cutoff        WCut        ... 1.0000e-14
Partially contracted basis set               ... on
Rotationally invariant grid construction     ... off
Angular grids for H and He will be reduced by one unit

Total number of grid points                  ...     4800
Total number of batches                      ...       42
Average number of points per batch           ...      114
Average number of grid points per atom       ...      600
UseSFitting                                  ... on

GRIDX 2
-------
General Integration Accuracy     IntAcc      ... 4.020
Radial Grid Type                 RadialGrid  ... OptM3 with GC (2021)
Angular Grid (max. ang.)         AngularGrid ... 2 (Lebedev-110)
Angular grid pruning method      GridPruning ... 4 (adaptive)
Weight generation scheme         WeightScheme... mBecke (2022)
Basis function cutoff            BFCut       ... 1.0000e-11
Integration weight cutoff        WCut        ... 1.0000e-14
Partially contracted basis set               ... on
Rotationally invariant grid construction     ... off
Angular grids for H and He will be reduced by one unit

Total number of grid points                  ...    10569
Total number of batches                      ...       87
Average number of points per batch           ...      121
Average number of grid points per atom       ...     1321
UseSFitting                                  ... on

GRIDX 3
-------
General Integration Accuracy     IntAcc      ... 4.338
Radial Grid Type                 RadialGrid  ... OptM3 with GC (2021)
Angular Grid (max. ang.)         AngularGrid ... 3 (Lebedev-194)
Angular grid pruning method      GridPruning ... 4 (adaptive)
Weight generation scheme         WeightScheme... mBecke (2022)
Basis function cutoff            BFCut       ... 1.0000e-11
Integration weight cutoff        WCut        ... 1.0000e-14
Partially contracted basis set               ... on
Rotationally invariant grid construction     ... off
Angular grids for H and He will be reduced by one unit

Total number of grid points                  ...    23344
Total number of batches                      ...      186
Average number of points per batch           ...      125
Average number of grid points per atom       ...     2918
UseSFitting                                  ... on
Initializing property integral containers    ... done (  0.0 sec)

SHARK setup successfully completed in   1.0 seconds

Maximum memory used throughout the entire STARTUP-calculation: 11.6 MB


           ************************************************************
           *        Program running with 4 parallel MPI-processes     *
           *              working on a common directory               *
           ************************************************************
-------------------------------------------------------------------------------
                                 ORCA GUESS
                   Start orbitals & Density for SCF / CASSCF
-------------------------------------------------------------------------------

------------
SCF SETTINGS
------------
Hamiltonian:
 Density Functional     Method          .... DFT(GTOs)
 Exchange Functional    Exchange        .... PBE
   PBE kappa parameter   XKappa         ....  0.804000
   PBE mue parameter    XMuePBE         ....  0.219520
 Correlation Functional Correlation     .... PBE
   PBE beta parameter  CBetaPBE         ....  0.066725
 LDA part of GGA corr.  LDAOpt          .... PW91-LDA
 Gradients option       PostSCFGGA      .... off
 Hybrid DFT is turned on
   Fraction HF Exchange ScalHFX         ....  0.250000
   Scaling of DF-GGA-X  ScalDFX         ....  0.750000
   Scaling of DF-GGA-C  ScalDFC         ....  1.000000
   Scaling of DF-LDA-C  ScalLDAC        ....  1.000000
   Perturbative correction              ....  0.000000
   NL short-range parameter             ....  6.900000
 RI-approximation to the Coulomb term is turned on
   Number of AuxJ basis functions       .... 240
   RIJ-COSX (HFX calculated with COS-X)).... on


General Settings:
 Integral files         IntName         .... CS_PdOAc_006_freq_01
 Hartree-Fock type      HFTyp           .... RHF
 Total Charge           Charge          ....    0
 Multiplicity           Mult            ....    1
 Number of Electrons    NEL             ....   32
 Basis Dimension        Dim             ....   64
 Nuclear Repulsion      ENuc            ....    121.3996306132 Eh

Convergence Acceleration:
 AO-DIIS                CNVDIIS         .... on
   Start iteration      DIISMaxIt       ....     0
   Startup error        DIISStart       ....  0.200000
   # of expansion vecs  DIISMaxEq       ....     5
   Bias factor          DIISBfac        ....   1.050
   Max. coefficient     DIISMaxC        ....  10.000
 MO-DIIS                CNVKDIIS        .... off
 Trust-Rad. Augm. Hess. CNVTRAH         .... auto
   Auto Start mean grad. ratio tolernc. ....  1.125000
   Auto Start start iteration           ....    50
   Auto Start num. interpolation iter.  ....    10
   Max. Number of Micro iterations      ....    24
   Max. Number of Macro iterations      .... Maxiter - #DIIS iter
   Number of Davidson start vectors     ....     2
   Converg. threshold    (grad. norm)   ....   1.000e-05
   Grad. Scal. Fac. for Micro threshold ....   0.100
   Minimum threshold for Micro iter.    ....   1.000e-02
   NR start threshold (gradient norm)   ....   1.000e-04
   Initial trust radius                 ....   0.400
   Minimum AH scaling param. (alpha)    ....   1.000
   Maximum AH scaling param. (alpha)    .... 1000.000
   Quad. conv. algorithm                .... NR
   White noise on init. David. guess    .... on
   Maximum white noise                  ....   0.010
   Pseudo random numbers                .... off
   Inactive MOs                         .... canonical
   Orbital update algorithm             .... Taylor
   Preconditioner                       .... Diag
   Full preconditioner red. dimension   ....   250
 SOSCF                  CNVSOSCF        .... on
   Start iteration      SOSCFMaxIt      ....   150
   Startup grad/error   SOSCFStart      ....  0.001000
   Hessian update       SOSCFHessUp     .... L-BFGS
 Level Shifting         CNVShift        .... on
   Level shift para.    LevelShift      ....    0.2500
   Turn off err/grad.   ShiftErr        ....    0.0000
 Zerner damping         CNVZerner       .... off
 Static damping         CNVDamp         .... on
   Fraction old density DampFac         ....    0.8500
   Max. Damping (<1)    DampMax         ....    0.9800
   Min. Damping (>=0)   DampMin         ....    0.0000
   Turn off err/grad.   DampErr         ....    0.0300

SCF Procedure:
 Maximum # iterations   MaxIter         ....  1500
 SCF integral mode      SCFMode         .... Direct
   Integral package                     .... SHARK and LIBINT hybrid scheme
 Reset frequency        DirectResetFreq ....    20
 Integral Threshold     Thresh          ....  2.500e-11 Eh
 Primitive CutOff       TCut            ....  2.500e-12 Eh

Convergence Tolerance:
 Convergence Check Mode ConvCheckMode   .... Total+1el-Energy
 Convergence forced     ConvForced      .... 0
 Energy Change          TolE            ....  1.000e-08 Eh
 1-El. energy change                    ....  1.000e-05 Eh
 Orbital Gradient       TolG            ....  1.000e-05
 Orbital Rotation angle TolX            ....  1.000e-05
 DIIS Error             TolErr          ....  5.000e-07

------------------------------
INITIAL GUESS: MODEL POTENTIAL
------------------------------
Loading Hartree-Fock densities                     ... done
Calculating cut-offs                               ... done
Initializing the effective Hamiltonian             ... done
Setting up the integral package (SHARK)            ... done
Starting the Coulomb interaction                   ... done (   0.0 sec)
Making the grid                                    ... done (   0.1 sec)
Mapping shells                                     ... done
Starting the XC term evaluation                    ... done (   0.0 sec)
  promolecular density results
     # of electrons  =     31.999586836
     EX              =    -27.702549590
     EC              =     -1.056124571
     EX+EC           =    -28.758674161
Transforming the Hamiltonian                       ... done (   0.0 sec)
Diagonalizing the Hamiltonian                      ... done (   0.0 sec)
Back transforming the eigenvectors                 ... done (   0.0 sec)
Now organizing SCF variables                       ... done
                      ------------------
                      INITIAL GUESS DONE (   0.3 sec)
                      ------------------
             **** ENERGY FILE WAS UPDATED (CS_PdOAc_006_freq_01.en.tmp) ****
Finished Guess after   0.8 sec
Maximum memory used throughout the entire GUESS-calculation: 6.7 MB


           ************************************************************
           *        Program running with 4 parallel MPI-processes     *
           *              working on a common directory               *
           ************************************************************

-------------------------------------------------------------------------------------------
                                      ORCA LEAN-SCF
                              memory conserving SCF solver
-------------------------------------------------------------------------------------------

----------------------------------------D-I-I-S--------------------------------------------
Iteration    Energy (Eh)           Delta-E    RMSDP     MaxDP     DIISErr   Damp  Time(sec)
-------------------------------------------------------------------------------------------
               ***  Starting incremental Fock matrix formation  ***
    1    -228.4965455758602957     0.00e+00  3.67e-03  4.11e-02  2.51e-01  0.850   2.8
    2    -228.5395658787588786    -4.30e-02  3.44e-03  3.81e-02  1.76e-01  0.850   0.9
                               ***Turning on AO-DIIS***
    3    -228.5659774449022166    -2.64e-02  1.63e-03  1.93e-02  1.11e-01  0.850   0.8
    4    -228.5825011178971522    -1.65e-02  1.01e-03  1.29e-02  8.72e-02  0.850   0.9
    5    -228.5943198775083829    -1.18e-02  7.28e-04  9.21e-03  7.35e-02  0.850   1.0
    6    -228.6035793799575799    -9.26e-03  5.84e-04  6.87e-03  6.27e-02  0.850   0.9
    7    -228.6111440989414518    -7.56e-03  4.99e-04  5.69e-03  5.25e-02  0.850   2.0
    8    -228.6173853610015954    -6.24e-03  4.19e-04  5.08e-03  4.31e-02  0.850   0.9
    9    -228.6225138307658540    -5.13e-03  3.52e-04  4.57e-03  3.58e-02  0.850   1.3
   10    -228.6267468413067832    -4.23e-03  2.94e-04  3.84e-03  3.01e-02  0.850   1.6
   11    -228.6302614973252503    -3.51e-03  2.46e-04  3.11e-03  2.54e-02  0.850   1.7
   12    -228.6331937208154272    -2.93e-03  1.38e-03  1.70e-02  2.12e-02  0.000   0.9
   13    -228.6489000653842822    -1.57e-02  1.34e-04  1.93e-03  2.80e-03  0.000   1.4
                              *** Initializing SOSCF ***
---------------------------------------S-O-S-C-F--------------------------------------
Iteration    Energy (Eh)           Delta-E    RMSDP     MaxDP     MaxGrad    Time(sec)
--------------------------------------------------------------------------------------
   14    -228.6489111627341231    -1.11e-05  4.45e-05  5.04e-04  8.88e-04     0.9
               *** Restarting incremental Fock matrix formation ***
   15    -228.6488852169567849     2.59e-05  1.95e-05  1.82e-04  4.90e-05     1.6
   16    -228.6488852175554598    -5.99e-10  8.97e-06  1.01e-04  8.29e-05     0.8
                 **** Energy Check signals convergence ****

               *****************************************************
               *                     SUCCESS                       *
               *           SCF CONVERGED AFTER  16 CYCLES          *
               *****************************************************

Recomputing exchange energy using gridx3       ... done (    0.351 sec)
Old exchange energy                            :     -7.048745590 Eh
New exchange energy                            :     -7.048751952 Eh
Exchange energy change after final integration :     -0.000006362 Eh
Total energy after final integration           :   -228.648891580 Eh
             **** ENERGY FILE WAS UPDATED (CS_PdOAc_006_freq_01.en.tmp) ****

----------------
TOTAL SCF ENERGY
----------------

Total Energy       :       -228.64889158001751 Eh           -6221.85265 eV

Components:
Nuclear Repulsion  :        121.39963061316001 Eh            3303.45189 eV
Electronic Energy  :       -350.04851583071547 Eh           -9525.30437 eV
One Electron Energy:       -552.26629643334252 Eh          -15027.92993 eV
Two Electron Energy:        202.21778060262702 Eh            5502.62556 eV

Virial components:
Potential Energy   :       -455.66520421961013 Eh          -12399.28057 eV
Kinetic Energy     :        227.01631263959263 Eh            6177.42792 eV
Virial Ratio       :          2.00719146091945

DFT components:
N(Alpha)           :       16.000009932294 electrons
N(Beta)            :       16.000009932294 electrons
N(Total)           :       32.000019864588 electrons
E(X)               :      -21.121689171701 Eh       
E(C)               :       -1.072810541524 Eh       
E(XC)              :      -22.194499713225 Eh       

---------------
SCF CONVERGENCE
---------------

  Last Energy change         ...    5.9867e-10  Tolerance :   1.0000e-08
  Last MAX-Density change    ...    1.0093e-04  Tolerance :   1.0000e-07
  Last RMS-Density change    ...    8.9710e-06  Tolerance :   5.0000e-09
  Last DIIS Error            ...    8.8830e-04  Tolerance :   5.0000e-07
  Last Orbital Gradient      ...    8.2876e-05  Tolerance :   1.0000e-05
  Last Orbital Rotation      ...    6.8081e-05  Tolerance :   1.0000e-05


----------------
ORBITAL ENERGIES
----------------

  NO   OCC          E(Eh)            E(eV) 
   0   2.0000     -19.255492      -523.9686 
   1   2.0000     -19.198949      -522.4300 
   2   2.0000     -10.365241      -282.0525 
   3   2.0000     -10.240968      -278.6709 
   4   2.0000      -1.131075       -30.7781 
   5   2.0000      -1.034541       -28.1513 
   6   2.0000      -0.775969       -21.1152 
   7   2.0000      -0.631143       -17.1743 
   8   2.0000      -0.505179       -13.7466 
   9   2.0000      -0.496414       -13.5081 
  10   2.0000      -0.489408       -13.3175 
  11   2.0000      -0.424910       -11.5624 
  12   2.0000      -0.409838       -11.1523 
  13   2.0000      -0.407626       -11.0921 
  14   2.0000      -0.337600        -9.1866 
  15   2.0000      -0.292873        -7.9695 
  16   0.0000       0.016849         0.4585 
  17   0.0000       0.063592         1.7304 
  18   0.0000       0.091813         2.4984 
  19   0.0000       0.136854         3.7240 
  20   0.0000       0.147998         4.0272 
  21   0.0000       0.222688         6.0596 
  22   0.0000       0.271060         7.3759 
  23   0.0000       0.323137         8.7930 
  24   0.0000       0.462386        12.5822 
  25   0.0000       0.468254        12.7418 
  26   0.0000       0.522187        14.2094 
*Only the first 10 virtual orbitals were printed.

                    ********************************
                    * MULLIKEN POPULATION ANALYSIS *
                    ********************************

-----------------------
MULLIKEN ATOMIC CHARGES
-----------------------
   0 O :   -0.375755
   1 C :    0.166403
   2 O :   -0.243078
   3 C :   -0.363770
   4 H :    0.161958
   5 H :    0.161982
   6 H :    0.157136
   7 H :    0.335123
Sum of atomic charges:   -0.0000000

--------------------------------
MULLIKEN REDUCED ORBITAL CHARGES
--------------------------------
  0 O s       :     3.761315  s :     3.761315
      pz      :     1.571511  p :     4.597575
      px      :     1.575252
      py      :     1.450812
      dz2     :     0.002145  d :     0.016865
      dxz     :     0.003210
      dyz     :     0.003975
      dx2y2   :     0.002858
      dxy     :     0.004677

  1 C s       :     3.053195  s :     3.053195
      pz      :     0.923082  p :     2.641526
      px      :     0.836856
      py      :     0.881587
      dz2     :     0.024425  d :     0.138877
      dxz     :     0.028376
      dyz     :     0.015974
      dx2y2   :     0.028766
      dxy     :     0.041335

  2 O s       :     3.749972  s :     3.749972
      pz      :     1.469368  p :     4.474022
      px      :     1.393884
      py      :     1.610770
      dz2     :     0.003240  d :     0.019084
      dxz     :     0.006275
      dyz     :     0.001283
      dx2y2   :     0.004485
      dxy     :     0.003800

  3 C s       :     3.133456  s :     3.133456
      pz      :     1.051597  p :     3.202108
      px      :     1.097050
      py      :     1.053461
      dz2     :     0.005815  d :     0.028206
      dxz     :     0.002810
      dyz     :     0.008183
      dx2y2   :     0.002780
      dxy     :     0.008619

  4 H s       :     0.838042  s :     0.838042

  5 H s       :     0.838018  s :     0.838018

  6 H s       :     0.842864  s :     0.842864

  7 H s       :     0.664877  s :     0.664877



                     *******************************
                     * LOEWDIN POPULATION ANALYSIS *
                     *******************************

----------------------
LOEWDIN ATOMIC CHARGES
----------------------
   0 O :   -0.256180
   1 C :    0.059066
   2 O :   -0.187625
   3 C :   -0.367828
   4 H :    0.151054
   5 H :    0.151010
   6 H :    0.144791
   7 H :    0.305711

-------------------------------
LOEWDIN REDUCED ORBITAL CHARGES
-------------------------------
  0 O s       :     3.526832  s :     3.526832
      pz      :     1.588780  p :     4.700053
      px      :     1.629851
      py      :     1.481422
      dz2     :     0.003991  d :     0.029296
      dxz     :     0.004468
      dyz     :     0.007091
      dx2y2   :     0.004644
      dxy     :     0.009101

  1 C s       :     2.849099  s :     2.849099
      pz      :     0.934399  p :     2.789284
      px      :     0.955774
      py      :     0.899110
      dz2     :     0.050435  d :     0.302551
      dxz     :     0.063118
      dyz     :     0.033336
      dx2y2   :     0.064362
      dxy     :     0.091300

  2 O s       :     3.546624  s :     3.546624
      pz      :     1.504973  p :     4.608696
      px      :     1.496322
      py      :     1.607402
      dz2     :     0.004264  d :     0.032305
      dxz     :     0.012198
      dyz     :     0.001864
      dx2y2   :     0.008731
      dxy     :     0.005247

  3 C s       :     2.962969  s :     2.962969
      pz      :     1.098813  p :     3.338011
      px      :     1.134617
      py      :     1.104581
      dz2     :     0.014086  d :     0.066848
      dxz     :     0.006276
      dyz     :     0.020417
      dx2y2   :     0.005817
      dxy     :     0.020252

  4 H s       :     0.848946  s :     0.848946

  5 H s       :     0.848990  s :     0.848990

  6 H s       :     0.855209  s :     0.855209

  7 H s       :     0.694289  s :     0.694289



                      *****************************
                      * MAYER POPULATION ANALYSIS *
                      *****************************

  NA   - Mulliken gross atomic population
  ZA   - Total nuclear charge
  QA   - Mulliken gross atomic charge
  VA   - Mayer's total valence
  BVA  - Mayer's bonded valence
  FA   - Mayer's free valence

  ATOM       NA         ZA         QA         VA         BVA        FA
  0 O      8.3758     8.0000    -0.3758     2.0676     2.0676    -0.0000
  1 C      5.8336     6.0000     0.1664     4.3862     4.3862    -0.0000
  2 O      8.2431     8.0000    -0.2431     2.2335     2.2335    -0.0000
  3 C      6.3638     6.0000    -0.3638     3.8413     3.8413    -0.0000
  4 H      0.8380     1.0000     0.1620     0.9500     0.9500    -0.0000
  5 H      0.8380     1.0000     0.1620     0.9500     0.9500    -0.0000
  6 H      0.8429     1.0000     0.1571     0.9628     0.9628    -0.0000
  7 H      0.6649     1.0000     0.3351     0.8907     0.8907    -0.0000

  Mayer bond orders larger than 0.100000
B(  0-O ,  1-C ) :   1.1959 B(  0-O ,  7-H ) :   0.8258 B(  1-C ,  2-O ) :   2.0959 
B(  1-C ,  3-C ) :   1.0530 B(  3-C ,  4-H ) :   0.9303 B(  3-C ,  5-H ) :   0.9303 
B(  3-C ,  6-H ) :   0.9475 

-------
TIMINGS
-------

Total SCF time: 0 days 0 hours 0 min 22 sec 

Total time                  ....      22.442 sec
Sum of individual times     ....      21.137 sec  ( 94.2%)

SCF preparation             ....       0.530 sec  (  2.4%)
Fock matrix formation       ....      14.204 sec  ( 63.3%)
  Startup                   ....       0.855 sec  (  6.0% of F)
  Split-RI-J                ....       3.458 sec  ( 24.3% of F)
  Chain of spheres X        ....       5.213 sec  ( 36.7% of F)
  XC integration            ....       2.463 sec  ( 17.3% of F)
    XC Preparation          ....       0.000 sec  (  0.0% of XC)
    Basis function eval.    ....       0.465 sec  ( 18.9% of XC)
    Density eval.           ....       0.165 sec  (  6.7% of XC)
    XC-Functional eval.     ....       0.174 sec  (  7.1% of XC)
    XC-Potential eval.      ....       0.165 sec  (  6.7% of XC)
Diagonalization             ....       0.000 sec  (  0.0%)
Density matrix formation    ....       2.458 sec  ( 11.0%)
Total Energy calculation    ....       0.944 sec  (  4.2%)
Population analysis         ....       0.173 sec  (  0.8%)
Orbital Transformation      ....       0.133 sec  (  0.6%)
Orbital Orthonormalization  ....       0.000 sec  (  0.0%)
DIIS solution               ....       2.499 sec  ( 11.1%)
SOSCF solution              ....       0.196 sec  (  0.9%)
Finished LeanSCF after  24.0 sec

Maximum memory used throughout the entire LEANSCF-calculation: 7.8 MB


           ************************************************************
           *        Program running with 4 parallel MPI-processes     *
           *              working on a common directory               *
           ************************************************************

------------------------------------------------------------------------------
                         ORCA PROPERTY INTEGRAL CALCULATIONS
------------------------------------------------------------------------------

GBWName                                   ... CS_PdOAc_006_freq_01.gbw
Number of atoms                           ...      8
Number of basis functions                 ...     64
Max core memory                           ...   3500 MB

Dipole integrals                          ... YES
Quadrupole integrals                      ...  NO
Linear momentum integrals                 ...  NO
Angular momentum integrals                ...  NO
Higher moments length integrals           ...  NO
Higher moments velocity integrals         ...  NO
Kinetic energy integrals                  ...  NO
GIAO right hand sides                     ...  NO
GIAO dipole derivative integrals          ...  NO
SOC integrals                             ...  NO
EPR diamagnetic integrals (GIAO)          ...  NO
EPR gauge integrals                       ...  NO
Field gradient integrals                  ...  NO (   0 nuclei)
Spin-dipole/Fermi contact integrals       ...  NO (   0 nuclei)
Contact density integrals                 ...  NO (   0 nuclei)
Nucleus-orbit integrals                   ...  NO (   0 nuclei)
Geometric perturbations                   ... YES (   8 nuclei)

Choice of electric origin   ... Center of mass
Position of electric origin ... (  1.2411, -1.4726,  0.9413) 
Choice of magnetic origin   ... GIAO
Position of magnetic origin ... (  0.0000,  0.0000,  0.0000) 

Calculating integrals                     ... Electric Dipole (Length)     done (  0.0 sec)
Calculating integrals                     ... Geometrical perturbation right hand sides

Info: (SHARK/DRIVER/GeoPert/RHS): Found parallel group flag:
                                  Will try to set up 2 WorkingGroups with 2 workers belonging to each group

Info (SHARK/DRIVER/GeoPert/RHS): Found 2 parallel subgroups - adjusting work intervals:
                                 group   1: will be working on atoms    4 to    7
                                 group   0: will be working on atoms    0 to    3
                                 Outputs of groups > 0 will be redirected to CS_PdOAc_006_freq_01.group*.propint.out


-----------------------
GEOMETRIC PERTURBATIONS (8 nuclei)
-----------------------

MaxCore                            ...   3500 MB
Number of batches                  ...      1

Warning: could not find the gridfile in CPSCF-Calc-FXC
         ... constructing integration grid from scratch...
         ... finished setting up the grid
BATCH   0: Atoms    0 -    3 ( 12 perturbations)
   => H(core) and overlap derivative integrals     ... done (     0.0 sec)
   => Making and storing internal U-coefficients   ... done (     0.1 sec)
   => RI-J derivative integrals                    ... done (     0.5 sec)
   => RI-J response operators                      ... done (     0.1 sec)
   => Chain of spheres derivative integrals        ... done (     1.1 sec)
   => Chain of spheres response operator           ... done (     0.5 sec)
   => XC derivative integrals                      ... done (     2.4 sec)
   => XC response operators                        ... done (     0.5 sec)
   => Completing and storing right hand sides      ... done (     0.0 sec)
   => Total time for right hand sides =   5.9 sec

  geometrical perturbations done (  7.0 sec)

Property integrals calculated in   7.0 sec

Maximum memory used throughout the entire PROPINT-calculation: 13.0 MB


-------------------------------------------------------------------------------
                          DFT DISPERSION CORRECTION                            
                                                                               
                              DFTD3 V3.1  Rev 1                                
                          USING Becke-Johnson damping                          
-------------------------------------------------------------------------------
The PBE0 functional is recognized
Active option DFTDOPT                   ...         4   

molecular C6(AA) [au] = 530.235015 


            DFT-D V3
 parameters
 s6 scaling factor         :     1.0000 
 a1 scaling factor         :     0.4145 
 s8 scaling factor         :     1.2177 
 a2 scaling factor         :     4.8593 
 ad hoc parameters k1-k3   :    16.0000     1.3333    -4.0000 

 Edisp/kcal,au: -2.160381033464  -0.003442785954 
 E6   /kcal   :  -1.400944057 
 E8   /kcal   :  -0.759436976 
 % E8         :  35.152918139 

-------------------------   ----------------
Dispersion correction           -0.003442786
-------------------------   ----------------


-------------------------   --------------------
FINAL SINGLE POINT ENERGY      -228.652334365971
-------------------------   --------------------



           ************************************************************
           *        Program running with 4 parallel MPI-processes     *
           *              working on a common directory               *
           ************************************************************
------------------------------------------------------------------------------
                            ORCA SCF RESPONSE CALCULATION
------------------------------------------------------------------------------

GBWName                                 ... CS_PdOAc_006_freq_01.gbw
Number of atoms                         ...      8
Number of basis functions               ...     64
Max core memory                         ...   3500 MB

Electric field perturbation             ...  NO
Quadrupolar field perturbation          ...  NO
Magnetic field perturbation (no GIAO)   ...  NO
Magnetic field perturbation (with GIAO) ...  NO
Linear momentum (velocity) perturbation ...  NO
Spin-orbit coupling perturbation        ...  NO
Choice of electric origin               ... Center of mass
Position of electric origin             ...     1.241122    -1.472563     0.941331
Choice of magnetic origin               ... GIAO
Position of magnetic origin             ...     0.000000     0.000000     0.000000
Nuclear geometric perturbations         ... YES (  24 perturbations)
Nucleus-orbit perturbations             ...  NO (   0 perturbations)
Spin-dipole/Fermi contact perturbations ...  NO (   0 perturbations)

Total number of real perturbations      ...     24
Total number of imaginary perturbations ...      0
Total number of triplet perturbations   ...      0
Total number of SOC perturbations       ...      0


Info: (ORCA_SCFRESP): Found parallel group flag:
                      Will try to set up 2 WorkingGroups with 2 workers belonging to each group


Using XC Grid                  ... (CS_PdOAc_006_freq_01.group0.grid_cpscf.tmp) 
Recalculating density on grid  ... (CS_PdOAc_006_freq_01.group0.grho_cpscf0.tmp) done
Calculating the xc-kernel      ... (CS_PdOAc_006_freq_01.group0.fxc_cpscf0.tmp) done

                                **********************
                                * REAL PERTURBATIONS *
                                **********************



-------------------
SHARK CP-SCF DRIVER
-------------------

Dimension of the orbital basis          ...     64
Dimension of the CPSCF-problem          ...    768
Number of operators                     ...      1
Max. number of iterations               ...    128
Max. DIIS space dimension               ...     20
Convergence Tolerance                   ... 1.0e-04
Number of perturbations                 ...     24
Perturbation type                       ... REAL

--------------------
DIIS EQUATION SOLVER
--------------------

  ITERATION   0:   ||err||_max =   3.5300e-01 (   2.4 sec   0/ 24 done)
  ITERATION   1:   ||err||_max =   3.9117e-01 (   2.1 sec   0/ 24 done)
  ITERATION   2:   ||err||_max =   2.1032e-02 (   1.4 sec   0/ 24 done)
  ITERATION   3:   ||err||_max =   6.6275e-03 (   2.8 sec   0/ 24 done)
  ITERATION   4:   ||err||_max =   2.6989e-03 (   1.8 sec   0/ 24 done)
  ITERATION   5:   ||err||_max =   7.9261e-04 (   2.1 sec   2/ 24 done)
  ITERATION   6:   ||err||_max =   3.2861e-04 (   2.5 sec  10/ 24 done)
  ITERATION   7:   ||err||_max =   9.9402e-05 (   1.8 sec  24/ 24 done)

CP-SCF equations solved in  19.0 sec
Response densities calculated in   0.1 sec

Maximum memory used throughout the entire SCFRESP-calculation: 9.9 MB


           ************************************************************
           *        Program running with 4 parallel MPI-processes     *
           *              working on a common directory               *
           ************************************************************

------------------------------------------------------------------------------
                              ORCA PROPERTY CALCULATIONS
------------------------------------------------------------------------------

GBWName                                 ... CS_PdOAc_006_freq_01.gbw
Number of atoms                         ...      8
Number of basis functions               ...     64
Max core memory                         ...   3500 MB

Electric properties:
Dipole moment                           ... YES
Quadrupole moment                       ...  NO
Static polarizability (Dipole/Dipole)   ...  NO
Static polarizability (Dipole/Quad.)    ...  NO
Static polarizability (Quad./Quad.)     ...  NO
Static polarizability (Velocity)        ...  NO

Atomic electric properties:
Dipole moment                           ...  NO
Quadrupole moment                       ...  NO
Static polarizability                   ...  NO

Choice of electric origin               ... Center of mass
Position of electric origin             ...     1.241122    -1.472563     0.941331

General magnetic properties:
Magnetizability                         ...  NO

EPR properties:
g-Tensor (aka g-matrix)                 ...  NO
Zero-Field splitting spin-orbit         ...  NO
Zero-field splitting spin-spin          ...  NO
Hyperfine couplings                     ...  NO (   0 nuclei)
Quadrupole couplings                    ...  NO (   0 nuclei)
Contact density                         ...  NO (   0 nuclei)

NMR properties:
Chemical shifts                         ...  NO (   0 nuclei)
Spin-rotation constants                 ...  NO (   0 nuclei)
Spin-spin couplings                     ...  NO (   0 nuclei,    0 pairs)

Choice of magnetic origin               ... GIAO
Position of magnetic origin             ...     0.000000     0.000000     0.000000

Properties with geometric perturbations:
SCF Hessian                             ... YES
IR spectrum                             ... YES
VCD spectrum                            ...  NO
X-ray spectroscopy properties:
SCF XES/XAS/RIXS spectra                ...  NO


-------------
DIPOLE MOMENT
-------------

Method             : SCF
Type of density    : Electron Density
Multiplicity       :   1
Irrep              :   0
Energy             :  -228.6488915800175050 Eh
Relativity type    : 
Basis              : AO
                                X                 Y                 Z
Electronic contribution:      0.861019647       2.188257781      -2.478989832
Nuclear contribution   :     -1.425027740      -2.157446736       2.749355632
                        -----------------------------------------
Total Dipole Moment    :     -0.564008093       0.030811045       0.270365800
                        -----------------------------------------
Magnitude (a.u.)       :      0.626220501
Magnitude (Debye)      :      1.591726016



--------------------
Rotational spectrum 
--------------------
 
Rotational constants in cm-1:             0.382156             0.316545             0.178972 
Rotational constants in MHz :         11456.738921          9489.779872          5365.458298 

Dipole components along the rotational axes: 
x,y,z [a.u.] :    -0.231934    -0.581679     0.002868 
x,y,z [Debye]:    -0.589530    -1.478510     0.007290 

 

Dipole moment calculation done in   0.1 sec 

-----------
SCF HESSIAN
-----------

Occupied/Occupied contributions to the Hessian:
   => Occupied/Occupied contributions              ... done (  1.0 sec)
Perturbed density contributions to the Hessian:
   => Perturbed density contributions              ... done (  0.0 sec)
Explicit contributions to the Hessian:
   => Nuclear repulsion Hessian                    ... done (  0.0 sec)
   => HCore and overlap Hessian                    ... done (  0.1 sec)
   => RI-J Hessian                                 ... done (  1.1 sec)
   => COSX Hessian                                 ... done ( 12.7 sec)
   => XC-Hessian                                   ... done (  2.5 sec)
   => Van der Waals-Hessian                        ... done (  0.6 sec)
   => Explicit contributions done
Dipole derivatives                                 ... done (  0.1 sec)
Mass weighting the Hessian           ... done
Calculating normal modes             ... done
Scaling frequencies                  ... done

-----------------------
VIBRATIONAL FREQUENCIES
-----------------------

Scaling factor for frequencies =  1.000000000  (already applied!)

     0:       0.00 cm**-1
     1:       0.00 cm**-1
     2:       0.00 cm**-1
     3:       0.00 cm**-1
     4:       0.00 cm**-1
     5:       0.00 cm**-1
     6:      68.54 cm**-1
     7:     426.20 cm**-1
     8:     553.53 cm**-1
     9:     601.03 cm**-1
    10:     701.60 cm**-1
    11:     895.03 cm**-1
    12:    1005.64 cm**-1
    13:    1071.87 cm**-1
    14:    1241.02 cm**-1
    15:    1352.79 cm**-1
    16:    1433.49 cm**-1
    17:    1454.87 cm**-1
    18:    1461.03 cm**-1
    19:    1911.91 cm**-1
    20:    3063.08 cm**-1
    21:    3151.06 cm**-1
    22:    3199.42 cm**-1
    23:    3657.94 cm**-1


------------
NORMAL MODES
------------

These modes are the Cartesian displacements weighted by the diagonal matrix
M(i,i)=1/sqrt(m[i]) where m[i] is the mass of the displaced atom
Thus, these vectors are normalized but *not* orthogonal

                  0          1          2          3          4          5    
      0       0.000000   0.000000   0.000000   0.000000   0.000000   0.000000
      1       0.000000   0.000000   0.000000   0.000000   0.000000   0.000000
      2       0.000000   0.000000   0.000000   0.000000   0.000000   0.000000
      3       0.000000   0.000000   0.000000   0.000000   0.000000   0.000000
      4       0.000000   0.000000   0.000000   0.000000   0.000000   0.000000
      5       0.000000   0.000000   0.000000   0.000000   0.000000   0.000000
      6       0.000000   0.000000   0.000000   0.000000   0.000000   0.000000
      7       0.000000   0.000000   0.000000   0.000000   0.000000   0.000000
      8       0.000000   0.000000   0.000000   0.000000   0.000000   0.000000
      9       0.000000   0.000000   0.000000   0.000000   0.000000   0.000000
     10       0.000000   0.000000   0.000000   0.000000   0.000000   0.000000
     11       0.000000   0.000000   0.000000   0.000000   0.000000   0.000000
     12       0.000000   0.000000   0.000000   0.000000   0.000000   0.000000
     13       0.000000   0.000000   0.000000   0.000000   0.000000   0.000000
     14       0.000000   0.000000   0.000000   0.000000   0.000000   0.000000
     15       0.000000   0.000000   0.000000   0.000000   0.000000   0.000000
     16       0.000000   0.000000   0.000000   0.000000   0.000000   0.000000
     17       0.000000   0.000000   0.000000   0.000000   0.000000   0.000000
     18       0.000000   0.000000   0.000000   0.000000   0.000000   0.000000
     19       0.000000   0.000000   0.000000   0.000000   0.000000   0.000000
     20       0.000000   0.000000   0.000000   0.000000   0.000000   0.000000
     21       0.000000   0.000000   0.000000   0.000000   0.000000   0.000000
     22       0.000000   0.000000   0.000000   0.000000   0.000000   0.000000
     23       0.000000   0.000000   0.000000   0.000000   0.000000   0.000000
                  6          7          8          9         10         11    
      0      -0.017490  -0.010401  -0.006637  -0.188032   0.036465  -0.146538
      1      -0.030989   0.161841  -0.012233  -0.010263   0.064428   0.133038
      2      -0.033408  -0.144515  -0.013498   0.107082   0.070639  -0.046184
      3      -0.004532  -0.141818   0.079401   0.002608  -0.043180   0.088670
      4      -0.008059   0.035370   0.141018   0.098802  -0.075933   0.063094
      5      -0.008694   0.040823   0.152648  -0.090712  -0.082423  -0.104869
      6       0.019114  -0.082869  -0.022992   0.158016   0.021943   0.164527
      7       0.033853  -0.086769  -0.039802  -0.230473   0.038235  -0.003436
      8       0.036589   0.123936  -0.043302   0.129992   0.041895  -0.082678
      9      -0.001216   0.161858  -0.001840   0.066600  -0.014439  -0.054707
     10      -0.002111  -0.094755  -0.003878   0.163401  -0.024823  -0.195564
     11      -0.002380   0.003113  -0.003564  -0.185985  -0.027970   0.209303
     12       0.581669   0.298166  -0.079689   0.093483   0.075907  -0.038842
     13       0.034667  -0.329815  -0.384952   0.115823   0.194824  -0.271443
     14       0.131391   0.169214   0.184188  -0.154747  -0.122967   0.263455
     15      -0.350224   0.288250  -0.025094   0.093056  -0.027301  -0.035398
     16       0.372989  -0.348802   0.197336   0.116388  -0.110039  -0.265174
     17       0.308059   0.154318  -0.384183  -0.160682   0.213522   0.273614
     18      -0.190935   0.411723  -0.099819   0.135152   0.037613  -0.095276
     19      -0.336120   0.156579  -0.176826   0.237085   0.066607  -0.255030
     20      -0.362814  -0.359667  -0.191856  -0.291958   0.069830   0.286493
     21       0.002198   0.243459  -0.249323  -0.669921  -0.326706  -0.520699
     22       0.004193   0.038108  -0.443773   0.227345  -0.580294   0.313082
     23       0.004818  -0.160765  -0.483058   0.141579  -0.631118  -0.022674
                 12         13         14         15         16         17    
      0      -0.082312   0.011705  -0.160998  -0.002242   0.019572  -0.008185
      1       0.072942   0.020353   0.053292   0.041661  -0.059639   0.016182
      2      -0.024108   0.022385   0.034376  -0.037165   0.044777  -0.010640
      3       0.011335  -0.077182   0.064777   0.066526  -0.118257   0.028265
      4      -0.043428  -0.136466  -0.088917  -0.116172   0.193921  -0.059610
      5       0.032637  -0.147985   0.049203   0.072533  -0.117753   0.040233
      6      -0.023291   0.016291   0.089719  -0.022619   0.047738   0.007088
      7      -0.016156   0.028308   0.004958   0.017628  -0.022702   0.010211
      8       0.027585   0.030379  -0.051543  -0.004467  -0.003942  -0.013114
      9       0.157916   0.060018  -0.059868  -0.040977   0.006239   0.039487
     10      -0.054205   0.107958   0.038859  -0.050263  -0.141467  -0.004674
     11      -0.031437   0.116730  -0.004951   0.067873   0.127089  -0.016497
     12      -0.174558  -0.245348   0.121912   0.194169  -0.203492  -0.600687
     13       0.309293  -0.468249  -0.001139   0.446123   0.383837  -0.194568
     14      -0.317159   0.344912   0.060117  -0.156348  -0.209825  -0.071509
     15      -0.112873   0.139789   0.060598   0.016128  -0.226923  -0.321511
     16       0.418861   0.272874  -0.108526   0.135479   0.356097   0.298845
     17      -0.208441  -0.546809  -0.054060  -0.492601  -0.248073   0.460121
     18      -0.209676  -0.127960   0.086056   0.253548   0.308440   0.223217
     19      -0.419750  -0.225302   0.187082   0.249178   0.165054   0.190728
     20       0.496983  -0.250393  -0.217365  -0.361815  -0.306501  -0.293333
     21       0.156508  -0.006315   0.804278  -0.373671   0.388407  -0.090906
     22      -0.046357  -0.011968  -0.405495   0.211376  -0.223103   0.052063
     23      -0.040856  -0.012764  -0.043507  -0.001481   0.005011  -0.001072
                 18         19         20         21         22         23    
      0      -0.001045  -0.060062  -0.000079   0.000024  -0.000252   0.015158
      1      -0.002018   0.006135  -0.000142   0.000038   0.000423   0.039354
      2      -0.001908   0.025626   0.000177   0.000045  -0.000259  -0.044000
      3       0.008695   0.601662  -0.000250  -0.000175   0.002230  -0.000390
      4       0.016428   0.092578   0.002077  -0.000309   0.000239   0.002749
      5       0.016996  -0.399838  -0.001799  -0.000308  -0.001392  -0.002333
      6      -0.000604  -0.381942   0.000375  -0.000088  -0.000908   0.000839
      7      -0.001453  -0.040705  -0.000095  -0.000157   0.000015  -0.000333
      8      -0.001574   0.237152  -0.000116  -0.000169   0.000463  -0.000128
      9       0.018726  -0.042044  -0.024602  -0.033458   0.084308  -0.000665
     10       0.032342  -0.030446  -0.027634  -0.058636  -0.043266  -0.000401
     11       0.036064   0.050171   0.037940  -0.063681  -0.004537   0.000720
     12      -0.297043  -0.088476   0.134697  -0.163209  -0.060849   0.001044
     13       0.321821  -0.073342  -0.302123   0.331436   0.143816  -0.001951
     14      -0.215232   0.057253  -0.536503   0.602015   0.261622  -0.001706
     15       0.258842  -0.060205   0.506959   0.565090  -0.237424   0.002507
     16      -0.381625  -0.024338   0.348263   0.380581  -0.169605   0.000632
     17       0.143879   0.111663   0.163331   0.167949  -0.077610   0.001087
     18      -0.259311   0.127607  -0.352062  -0.000339  -0.713220   0.001280
     19      -0.458355   0.097319   0.260498  -0.008175   0.533122  -0.000528
     20      -0.497718  -0.157596  -0.056004  -0.005970  -0.118704  -0.000193
     21      -0.003057   0.368340   0.001839   0.000231  -0.001250  -0.246160
     22      -0.007878  -0.191286   0.001662   0.000409  -0.001579  -0.645475
     23      -0.007901  -0.015610  -0.002440   0.000449   0.002102   0.720430


-----------
IR SPECTRUM
-----------

 Mode   freq       eps      Int      T**2         TX        TY        TZ
       cm**-1   L/(mol*cm) km/mol    a.u.
----------------------------------------------------------------------------
  6:     68.54   0.000194    0.98  0.000882  ( 0.010622  0.018778  0.020422)
  7:    426.20   0.000833    4.21  0.000610  ( 0.022372 -0.010242 -0.002113)
  8:    553.53   0.004075   20.59  0.002297  (-0.017120 -0.030348 -0.032912)
  9:    601.03   0.009254   46.77  0.004805  (-0.022375  0.053681 -0.037719)
 10:    701.60   0.022135  111.86  0.009845  (-0.035594 -0.062582 -0.068277)
 11:    895.03   0.000763    3.86  0.000266  ( 0.004229  0.010263 -0.011952)
 12:   1005.64   0.007365   37.22  0.002286  ( 0.032337 -0.032698  0.013067)
 13:   1071.87   0.002676   13.52  0.000779  (-0.009996 -0.017561 -0.019255)
 14:   1241.02   0.042392  214.23  0.010660  ( 0.070217 -0.070191  0.028331)
 15:   1352.79   0.002684   13.56  0.000619  ( 0.021864 -0.011872 -0.000417)
 16:   1433.49   0.023722  119.88  0.005164  (-0.030079  0.055067 -0.035031)
 17:   1454.87   0.003934   19.88  0.000844  (-0.015528 -0.013361  0.020594)
 18:   1461.03   0.002652   13.40  0.000566  (-0.008703 -0.014878 -0.016409)
 19:   1911.91   0.065055  328.76  0.010618  ( 0.092723 -0.004026 -0.044772)
 20:   3063.08   0.000089    0.45  0.000009  (-0.001688 -0.001343  0.002094)
 21:   3151.06   0.000150    0.76  0.000015  (-0.001369 -0.002502 -0.002584)
 22:   3199.42   0.000229    1.16  0.000022  ( 0.003211 -0.003202  0.001329)
 23:   3657.94   0.012745   64.41  0.001087  ( 0.000270 -0.024382  0.022197)

* The epsilon (eps) is given for a Dirac delta lineshape.
** The dipole moment derivative (T) already includes vibrational overlap.

The first frequency considered to be a vibration is 6
The total number of vibrations considered is 18


--------------------------
THERMOCHEMISTRY AT 298.15K
--------------------------

Temperature         ...   298.15 K
Pressure            ...     1.00 atm
Total Mass          ...    60.05 AMU
Quasi RRHO          ...     True
Cut-Off Frequency   ...     1.00 cm^-1

Throughout the following assumptions are being made:
  (1) The electronic state is orbitally nondegenerate
  (2) There are no thermally accessible electronically excited states
  (3) Hindered rotations indicated by low frequency modes are not
      treated as such but are treated as vibrations and this may
      cause some error
  (4) All equations used are the standard statistical mechanics
      equations for an ideal gas
  (5) All vibrations are strictly harmonic

freq.      68.54  E(vib)   ...       0.50 
freq.     426.20  E(vib)   ...       0.18 
freq.     553.53  E(vib)   ...       0.12 
freq.     601.03  E(vib)   ...       0.10 
freq.     701.60  E(vib)   ...       0.07 
freq.     895.03  E(vib)   ...       0.03 
freq.    1005.64  E(vib)   ...       0.02 
freq.    1071.87  E(vib)   ...       0.02 
freq.    1241.02  E(vib)   ...       0.01 
freq.    1352.79  E(vib)   ...       0.01 
freq.    1433.49  E(vib)   ...       0.00 
freq.    1454.87  E(vib)   ...       0.00 
freq.    1461.03  E(vib)   ...       0.00 
freq.    1911.91  E(vib)   ...       0.00 
freq.    3063.08  E(vib)   ...       0.00 
freq.    3151.06  E(vib)   ...       0.00 
freq.    3199.42  E(vib)   ...       0.00 
freq.    3657.94  E(vib)   ...       0.00 

------------
INNER ENERGY
------------

The inner energy is: U= E(el) + E(ZPE) + E(vib) + E(rot) + E(trans)
    E(el)   - is the total energy from the electronic structure calculation
              = E(kin-el) + E(nuc-el) + E(el-el) + E(nuc-nuc)
    E(ZPE)  - the the zero temperature vibrational energy from the frequency calculation
    E(vib)  - the the finite temperature correction to E(ZPE) due to population
              of excited vibrational states
    E(rot)  - is the rotational thermal energy
    E(trans)- is the translational thermal energy

Summary of contributions to the inner energy U:
Electronic energy                ...   -228.65233437 Eh
Zero point energy                ...      0.06208017 Eh      38.96 kcal/mol
Thermal vibrational correction   ...      0.00170149 Eh       1.07 kcal/mol
Thermal rotational correction    ...      0.00141627 Eh       0.89 kcal/mol
Thermal translational correction ...      0.00141627 Eh       0.89 kcal/mol
-----------------------------------------------------------------------
Total thermal energy                   -228.58572016 Eh


Summary of corrections to the electronic energy:
(perhaps to be used in another calculation)
Total thermal correction                  0.00453403 Eh       2.85 kcal/mol
Non-thermal (ZPE) correction              0.06208017 Eh      38.96 kcal/mol
-----------------------------------------------------------------------
Total correction                          0.06661421 Eh      41.80 kcal/mol


--------
ENTHALPY
--------

The enthalpy is H = U + kB*T
                kB is Boltzmann's constant
Total thermal energy              ...   -228.58572016 Eh 
Thermal Enthalpy correction       ...      0.00094421 Eh       0.59 kcal/mol
-----------------------------------------------------------------------
Total Enthalpy                    ...   -228.58477595 Eh


Note: Only C1 symmetry has been detected, increase convergence thresholds 
      if your molecule has a higher symmetry. Symmetry factor of 1.0 is   
      used for the rotational entropy correction. 
 

Note: Rotational entropy computed according to Herzberg 
Infrared and Raman Spectra, Chapter V,1, Van Nostrand Reinhold, 1945 
Point Group:  C1, Symmetry Number:   1  
Rotational constants in cm-1:     0.382156     0.316545     0.178972 

Vibrational entropy computed according to the QRRHO of S. Grimme
Chem.Eur.J. 2012 18 9955 using a reference frequency of 100.0 cm-1


-------
ENTROPY
-------

The entropy contributions are T*S = T*(S(el)+S(vib)+S(rot)+S(trans))
     S(el)   - electronic entropy
     S(vib)  - vibrational entropy
     S(rot)  - rotational entropy
     S(trans)- translational entropy
The entropies will be listed as multiplied by the temperature to get
units of energy

Electronic entropy                ...      0.00000000 Eh      0.00 kcal/mol
Vibrational entropy               ...      0.00283731 Eh      1.78 kcal/mol
Rotational entropy                ...      0.01132021 Eh      7.10 kcal/mol
Translational entropy             ...      0.01814900 Eh     11.39 kcal/mol
-----------------------------------------------------------------------
Final entropy term                ...      0.03230652 Eh     20.27 kcal/mol

In case the symmetry of your molecule has not been determined correctly
or in case you have a reason to use a different symmetry number we print 
out the resulting rotational entropy values for sn=1,12:

 non-linear molecules -----------------------------------
|  sn= 1 | S(rot)=       0.01132021 Eh      7.10 kcal/mol|
|  sn= 2 | S(rot)=       0.01066575 Eh      6.69 kcal/mol|
|  sn= 3 | S(rot)=       0.01028292 Eh      6.45 kcal/mol|
|  sn= 4 | S(rot)=       0.01001130 Eh      6.28 kcal/mol|
|  sn= 5 | S(rot)=       0.00980061 Eh      6.15 kcal/mol|
|  sn= 6 | S(rot)=       0.00962847 Eh      6.04 kcal/mol|
|  sn= 7 | S(rot)=       0.00948292 Eh      5.95 kcal/mol|
|  sn= 8 | S(rot)=       0.00935684 Eh      5.87 kcal/mol|
|  sn= 9 | S(rot)=       0.00924563 Eh      5.80 kcal/mol|
|  sn=10 | S(rot)=       0.00914615 Eh      5.74 kcal/mol|
|  sn=11 | S(rot)=       0.00905616 Eh      5.68 kcal/mol|
|  sn=12 | S(rot)=       0.00897401 Eh      5.63 kcal/mol|
 linear molecules ---------------------------------------
|  Dinfh | S(rot)=       0.00695029 Eh      4.36 kcal/mol|
|  Cinfv | S(rot)=       0.00760475 Eh      4.77 kcal/mol|
 --------------------------------------------------------


-------------------
GIBBS FREE ENERGY
-------------------

The Gibbs free energy is G = H - T*S

Total enthalpy                    ...   -228.58477595 Eh 
Total entropy correction          ...     -0.03230652 Eh    -20.27 kcal/mol
-----------------------------------------------------------------------
Final Gibbs free energy         ...   -228.61708247 Eh

For completeness - the Gibbs free energy minus the electronic energy
G-E(el)                           ...      0.03525190 Eh     22.12 kcal/mol


Maximum memory used throughout the entire PROP-calculation: 26.1 MB

--------------------------------
SUGGESTED CITATIONS FOR THIS RUN
--------------------------------

Below you find a list of papers that are relevant to this ORCA run
We neither can nor want to force you to cite these papers, but we appreciate if you do
You receive ORCA, which is the product of decades of hard work by many enthusiastic individuals, for free
The only thing we kindly ask in return is that you cite our papers,
We deeply appreciate it, if you show your appreciation for ORCA by not just citing the generic ORCA reference.

Please note that relegating all ORCA citations to the supporting information does *not* help us.
SI sections are not indexed - citations you put there will not count into any citation statistics
But we need these citations in order to attract the funding resources that allow us to do what we are doing

Therefore, if you are a happy ORCA user, please consider citing a few of the papers listed below in the main body of your paper

In addition to the list printed below, the program has created the file CS_PdOAc_006_freq_01.bibtex that contains the list in bibtex format
You can import this file easily into all common literature databanks and citation aid programs


List of essential papers. We consider these as the minimum necessary citations

  1. Neese,F.
     Software update: the ORCA program system, version 5.0
     WIRES Comput. Molec. Sci., 2022 12(1)e1606
     doi.org/10.1002/wcms.1606

List of papers to cite with high priority. The work reported in these papers was absolutely
necessary for this run to complete.
Our perspective: the developers of density functionals and basis sets usually get cited in chemistry papers
Good! But without the algorithms to do something with them, the functionals or basis sets would not do anything.
Hence, in our opinion, the algorithm design and method developments papers are equally worthy of getting cited

  1. Neese,F.
     An improvement of the resolution of the identity approximation for the formation of the Coulomb matrix
     J. Comp. Chem., 2003 24(14)1740-1747
     doi.org/10.1002/jcc.10318
  2. Neese,F.; Wennmohs,F.; Hansen,A.; Becker,U.
     Efficient, approximate and parallel Hartree-Fock and hybrid DFT calculations. A 'chain-of-spheres' algorithm for the Hartree-Fock exchange
     Chem. Phys., 2009 356(1-3)98-109
     doi.org/10.1016/j.chemphys.2008.10.036
  3. Bykov,D.; Petrenko,T.; Izsak,R.; Kossmann,S.; Becker,U.; Valeev,E.; Neese,F.
     Efficient implementation of the analytic second derivatives of Hartree-Fock and hybrid DFT energies: a detailed analysis of different approximations
     Molec. Phys., 2015 113 1961-1977
     doi.org/10.1080/00268976.2015.1025114
  4. Helmich-Paris,B.; de Souza,B.; Neese,F.; Izsák,R.
     An improved chain of spheres for exchange algorithm
     J. Chem. Phys., 2021 155 104109
     doi.org/doi: 10.1063/5.0058766.
  5. Neese,F.
     The SHARK Integral Generation and Digestion System
     J. Comp. Chem., 2022  1-16
     doi.org/10.1002/jcc.26942
  6. Grimme,S.; Antony,J.; Ehrlich,S.; Krieg,H.
     A consistent and accurate ab initio parametrization of density functional dispersion correction (DFT-D) for the 94 elements H-Pu
     J. Chem. Phys., 2010 132 154104-XXXX
     doi.org/10.1063/1.3382344
  7. Grimme,S.; Ehrlich,S.; Goerigk,L.
     Effect of the damping function in dispersion corrected density functional theory
     J. Comput. Chem., 2011 32(7)1456-1465
     doi.org/10.1002/jcc.21759

List of suggested additional citations. These are papers that are important in the 'surrounding' of 
of this run, or papers that preceded the highly important papers. If you like your results we are grateful for a citation.

  1. Izsak,R.; Neese,F.
     An overlap fitted chain of spheres exchange method
     J. Chem. Phys., 2011 135 144105
     doi.org/10.1063/1.3646921
  2. Izsak,R.; Hansen,A.; Neese,F.
     The resolution of identity and chain of spheres approximations for the LPNO-CCSD singles Fock term
     Molec. Phys., 2012 110 2413-2417
     doi.org/10.1080/00268976.2012.687466
  3. Neese,F.
     The ORCA program system
     WIRES Comput. Molec. Sci., 2012 2(1)73-78
     doi.org/10.1002/wcms.81
  4. Izsak,R.; Neese,F.; Klopper,W.
     Robust fitting techniques in the chain of spheres approximation to the Fock exchange: The role of the complementary space
     J. Chem. Phys., 2013 139 
     doi.org/10.1063/1.4819264
  5. Neese,F.
     Software update: the ORCA program system, version 4.0
     WIRES Comput. Molec. Sci., 2018 8(1)1-6
     doi.org/10.1002/wcms.1327
  6. Neese,F.; Wennmohs,F.; Becker,U.; Riplinger,C.
     The ORCA quantum chemistry program package
     J. Chem. Phys., 2020 152 Art. No. L224108
     doi.org/10.1063/5.0004608

List of optional additional citations

  1. Neese,F.
     Approximate second-order SCF convergence for spin unrestricted wavefunctions
     Chem. Phys. Lett., 2000 325(1-3)93-98
     doi.org/10.1016/s0009-2614(00)00662-x

Timings for individual modules:

Sum of individual times          ...       79.928 sec (=   1.332 min)
Startup calculation              ...        2.503 sec (=   0.042 min)   3.1 %
SCF iterations                   ...       27.343 sec (=   0.456 min)  34.2 %
Property integrals               ...        8.662 sec (=   0.144 min)  10.8 %
SCF Response                     ...       21.353 sec (=   0.356 min)  26.7 %
Property calculations            ...       20.067 sec (=   0.334 min)  25.1 %
                             ****ORCA TERMINATED NORMALLY****
TOTAL RUN TIME: 0 days 0 hours 1 minutes 22 seconds 462 msec
