
                                 *****************
                                 * O   R   C   A *
                                 *****************

                                            #,                                       
                                            ###                                      
                                            ####                                     
                                            #####                                    
                                            ######                                   
                                           ########,                                 
                                     ,,################,,,,,                         
                               ,,#################################,,                 
                          ,,##########################################,,             
                       ,#########################################, ''#####,          
                    ,#############################################,,   '####,        
                  ,##################################################,,,,####,       
                ,###########''''           ''''###############################       
              ,#####''   ,,,,##########,,,,          '''####'''          '####       
            ,##' ,,,,###########################,,,                        '##       
           ' ,,###''''                  '''############,,,                           
         ,,##''                                '''############,,,,        ,,,,,,###''
      ,#''                                            '''#######################'''  
     '                                                          ''''####''''         
             ,#######,   #######,   ,#######,      ##                                
            ,#'     '#,  ##    ##  ,#'     '#,    #''#        ,####,   ,####,        
            ##       ##  ##   ,#'  ##            #'  '#       #'       #'  '#        
            ##       ##  #######   ##           ,######,      #####,   #    #        
            '#,     ,#'  ##    ##  '#,     ,#' ,#      #,     #,   #   #,  ,#        
             '#######'   ##     ##  '#######'  #'      '#     '####' # '####'        



                #########################################################
                #                        -***-                          #
                #          Department of theory and spectroscopy        #
                #                                                       #
                #                      Frank Neese                      #
                #                                                       #
                #     Directorship, Architecture, Infrastructure        #
                #                    SHARK, DRIVERS                     #
                #        Core code/Algorithms in most modules           #
                #                                                       #
                #        Max Planck Institute fuer Kohlenforschung      #
                #                Kaiser Wilhelm Platz 1                 #
                #                 D-45470 Muelheim/Ruhr                 #
                #                      Germany                          #
                #                                                       #
                #                  All rights reserved                  #
                #                        -***-                          #
                #########################################################


                         Program Version 6.0.0  -   RELEASE  -


 With contributions from (in alphabetic order):
   Daniel Aravena         : Magnetic Suceptibility
   Michael Atanasov       : Ab Initio Ligand Field Theory (pilot matlab implementation)
   Alexander A. Auer      : GIAO ZORA, VPT2 properties, NMR spectrum
   Ute Becker             : All parallelization in ORCA, NUMFREQ, NUMCALC
   Giovanni Bistoni       : ED, misc. LED, open-shell LED, HFLD
   Martin Brehm           : Molecular dynamics
   Dmytro Bykov           : pre 5.0 version of the SCF Hessian
   Marcos Casanova-Páez   : Triplet and SCS-CIS(D). UHF-(DLPNO)-IP/EA/STEOM-CCSD. UHF-CVS-IP/STEOM-CCSD
   Vijay G. Chilkuri      : MRCI spin determinant printing, contributions to CSF-ICE
   Pauline Colinet        : FMM embedding
   Dipayan Datta          : RHF DLPNO-CCSD density
   Achintya Kumar Dutta   : EOM-CC, STEOM-CC
   Nicolas Foglia         : Exact transition moments, OPA infrastructure, MCD improvements
   Dmitry Ganyushin       : Spin-Orbit,Spin-Spin,Magnetic field MRCI
   Miquel Garcia          : C-PCM and meta-GGA Hessian, CCSD/C-PCM, Gaussian charge scheme
   Tiago L. C. Gouveia    : GS-ROHF, GS-ROCIS
   Yang Guo               : DLPNO-NEVPT2, F12-NEVPT2, CIM, IAO-localization
   Andreas Hansen         : Spin unrestricted coupled pair/coupled cluster methods
   Ingolf Harden          : AUTO-CI MPn and infrastructure 
   Benjamin Helmich-Paris : MC-RPA, TRAH-(SCF,CASSCF), AVAS, COSX integrals, SCF dyn. polar.
   Lee Huntington         : MR-EOM, pCC
   Robert Izsak           : Overlap fitted RIJCOSX, COSX-SCS-MP3, EOM
   Riya Kayal             : Wick's Theorem for AUTO-CI, AUTO-CI UHF-CCSDT
   Emily Kempfer          : AUTO-CI, RHF CISDT and CCSDT
   Christian Kollmar      : KDIIS, OOCD, Brueckner-CCSD(T), CCSD density, CASPT2, CASPT2-K, improved NEVPT2
   Axel Koslowski         : Symmetry handling
   Simone Kossmann        : Meta GGA functionals, TD-DFT gradient, OOMP2, (MP2 Hessian; deprecated post 5.0)
   Lucas Lang             : DCDCAS
   Marvin Lechner         : AUTO-CI (C++ implementation), FIC-MRCC
   Spencer Leger          : CASSCF response
   Dagmar Lenk            : GEPOL surface, SMD, ORCA-2-JSON
   Dimitrios Liakos       : Extrapolation schemes; Compound Job, initial MDCI parallelization
   Dimitrios Manganas     : Further ROCIS development; embedding schemes. LFT, Crystal Embedding
   Dimitrios Pantazis     : SARC Basis sets
   Anastasios Papadopoulos: AUTO-CI, single reference methods and gradients
   Taras Petrenko         : pre 6.0 DFT Hessian and TD-DFT gradient, (ASA, deprecated), ECA, 1-Electron XAS/XES, NRVS
   Peter Pinski           : DLPNO-MP2, DLPNO-MP2 Gradient
   Christoph Reimann      : Effective Core Potentials
   Marius Retegan         : Local ZFS, SOC
   Christoph Riplinger    : Optimizer, TS searches, QM/MM, DLPNO-CCSD(T), (RO)-DLPNO pert. Triples
   Michael Roemelt        : Original ROCIS implementation
   Masaaki Saitow         : Open-shell DLPNO-CCSD energy and density
   Barbara Sandhoefer     : DKH picture change effects
   Kantharuban Sivalingam : CASSCF convergence/infrastructure, NEVPT2 and variants, FIC-MRCI
   Bernardo de Souza      : ESD, SOC TD-DFT
   Georgi Stoychev        : AutoAux, RI-MP2 NMR, DLPNO-MP2 response, X2C
   Van Anh Tran           : RI-MP2 g-tensors
   Willem Van den Heuvel  : Paramagnetic NMR
   Zikuan Wang            : NOTCH, Electric field optimization 
   Frank Wennmohs         : Technical directorship and infrastructure
   Hang Xu                : AUTO-CI-Response properties 


 We gratefully acknowledge several colleagues who have allowed us to
 interface, adapt or use parts of their codes:
   Stefan Grimme, W. Hujo, H. Kruse, P. Pracht,  : VdW corrections, initial TS optimization,
                  C. Bannwarth, S. Ehlert,         DFT functionals, gCP, sTDA/sTD-DF
                  L. Wittmann, M. Mueller
   Ed Valeev, F. Pavosevic, A. Kumar             : LibInt (2-el integral package), F12 methods
   Garnet Chan, S. Sharma, J. Yang, R. Olivares  : DMRG
   Ulf Ekstrom                                   : XCFun DFT Library
   Mihaly Kallay                                 : mrcc  (arbitrary order and MRCC methods)
   Frank Weinhold                                : gennbo (NPA and NBO analysis)
   Simon Mueller                                 : openCOSMO-RS
   Christopher J. Cramer and Donald G. Truhlar   : smd solvation model
   Lars Goerigk                                  : TD-DFT with DH, B97 family of functionals
   V. Asgeirsson, H. Jonsson                     : NEB implementation
   FAccTs GmbH                                   : IRC, NEB, NEB-TS, DLPNO-Multilevel, CI-OPT
                                                   MM, QMMM, 2- and 3-layer-ONIOM, Crystal-QMMM,
                                                   LR-CPCM, SF, NACMEs, symmetry and pop. for TD-DFT,
                                                   nearIR, NL-DFT gradient (VV10), updates on ESD,
                                                   ML-optimized integration grids, MBIS, APM,
                                                   GOAT, DOCKER, SOLVATOR, interface openCOSMO-RS
   S Lehtola, MJT Oliveira, MAL Marques          : LibXC Library
   Liviu Ungur et al                             : ANISO software


 Your calculation uses the libint2 library for the computation of 2-el integrals
 For citations please refer to: http://libint.valeyev.net

 Your ORCA version has been built with support for libXC version: 6.2.2
 For citations please refer to: https://libxc.gitlab.io

 This ORCA versions uses:
   CBLAS   interface :  Fast vector & matrix operations
   LAPACKE interface :  Fast linear algebra routines
   SCALAPACK package :  Parallel linear algebra routines
   Shared memory     :  Shared parallel matrices
   BLAS/LAPACK       :  OpenBLAS 0.3.27  USE64BITINT DYNAMIC_ARCH NO_AFFINITY Sandybridge SINGLE_THREADED
        Core in use  :  Sandybridge
   Copyright (c) 2011-2014, The OpenBLAS Project


NOTE: MaxCore=3500 MB was set to SCF,MP2,MDCI,CIPSI,MRCI and CIS
      => If you want to overwrite this, your respective input block should be placed after the MaxCore statement
Your calculation utilizes the atom-pairwise dispersion correction
with the Becke-Johnson damping scheme (D3BJ)


Warning: RI is on but no J-basis has been assigned. Assigning Def2/J (nothing to worry about!)
================================================================================

----- Orbital basis set information -----
Your calculation utilizes the basis: def2-TZVP
   F. Weigend and R. Ahlrichs, Phys. Chem. Chem. Phys. 7, 3297 (2005).

----- AuxJ basis set information -----
Your calculation utilizes the auxiliary basis: def2/J
   F. Weigend, Phys. Chem. Chem. Phys. 8, 1057 (2006).

================================================================================
                                        WARNINGS
                       Please study these warnings very carefully!
================================================================================


================================================================================
                                       INPUT FILE
================================================================================
NAME = CS_PdOAc_005_sp_01.inp
|  1> !TPSSh def2-TZVP d3 TightSCF SlowConv RIJCOSX defgrid2
|  2> 
|  3> %pal
|  4> nprocs 4
|  5> end
|  6> 
|  7> %scf
|  8> MaxIter 1500
|  9> end
| 10> 
| 11> %maxcore 3500
| 12> 
| 13>  
| 14> 
| 15> * xyz -1 1
| 16>   O           0.04097369729735      0.11058448016261      0.10410501105795
| 17>   C           0.91129366911499     -0.72990183455175      0.40525987097505
| 18>   O           2.07191816196502     -0.86685276981809     -0.02560522284868
| 19>   C           0.46292092331661     -1.75834321798077      1.50368886391921
| 20>   H           0.23993789866618     -1.22049979178529      2.44613361176739
| 21>   H          -0.47945344012185     -2.25187814320855      1.19633043901367
| 22>   H           1.23604429576170     -2.52416776681814      1.69809167311541
| 23> *
| 24> 
| 25>                          ****END OF INPUT****
================================================================================

                       ****************************
                       * Single Point Calculation *
                       ****************************

---------------------------------
CARTESIAN COORDINATES (ANGSTROEM)
---------------------------------
  O      0.040974    0.110584    0.104105
  C      0.911294   -0.729902    0.405260
  O      2.071918   -0.866853   -0.025605
  C      0.462921   -1.758343    1.503689
  H      0.239938   -1.220500    2.446134
  H     -0.479453   -2.251878    1.196330
  H      1.236044   -2.524168    1.698092

----------------------------
CARTESIAN COORDINATES (A.U.)
----------------------------
  NO LB      ZA    FRAG     MASS         X           Y           Z
   0 O     8.0000    0    15.999    0.077429    0.208974    0.196730
   1 C     6.0000    0    12.011    1.722095   -1.379315    0.765830
   2 O     8.0000    0    15.999    3.915358   -1.638114   -0.048387
   3 C     6.0000    0    12.011    0.874794   -3.322787    2.841560
   4 H     1.0000    0     1.008    0.453417   -2.306410    4.622523
   5 H     1.0000    0     1.008   -0.906036   -4.255433    2.260737
   6 H     1.0000    0     1.008    2.335785   -4.769986    3.208928

--------------------------------
INTERNAL COORDINATES (ANGSTROEM)
--------------------------------
 O      0   0   0     0.000000000000     0.00000000     0.00000000
 C      1   0   0     1.246823302725     0.00000000     0.00000000
 O      2   1   0     1.245571957435   129.86569333     0.00000000
 C      2   1   3     1.570119756854   114.27926988   179.50989176
 H      4   2   1     1.107790180102   109.55020029   297.74500996
 H      4   2   1     1.107300936804   109.92499493    54.24288355
 H      4   2   1     1.105440835525   112.15320431   176.42413643

---------------------------
INTERNAL COORDINATES (A.U.)
---------------------------
 O      0   0   0     0.000000000000     0.00000000     0.00000000
 C      1   0   0     2.356154579542     0.00000000     0.00000000
 O      2   1   0     2.353789879645   129.86569333     0.00000000
 C      2   1   3     2.967096337914   114.27926988   179.50989176
 H      4   2   1     2.093420054240   109.55020029   297.74500996
 H      4   2   1     2.092495518393   109.92499493    54.24288355
 H      4   2   1     2.088980436395   112.15320431   176.42413643

---------------------
BASIS SET INFORMATION
---------------------
There are 3 groups of distinct atoms

 Group   1 Type O   : 11s6p2d1f contracted to 5s3p2d1f pattern {62111/411/11/1}
 Group   2 Type C   : 11s6p2d1f contracted to 5s3p2d1f pattern {62111/411/11/1}
 Group   3 Type H   : 5s1p contracted to 3s1p pattern {311/1}

Atom   0O    basis set group =>   1
Atom   1C    basis set group =>   2
Atom   2O    basis set group =>   1
Atom   3C    basis set group =>   2
Atom   4H    basis set group =>   3
Atom   5H    basis set group =>   3
Atom   6H    basis set group =>   3
---------------------------------
AUXILIARY/J BASIS SET INFORMATION
---------------------------------
There are 3 groups of distinct atoms

 Group   1 Type O   : 12s5p4d2f1g contracted to 6s4p3d1f1g pattern {711111/2111/211/2/1}
 Group   2 Type C   : 12s5p4d2f1g contracted to 6s4p3d1f1g pattern {711111/2111/211/2/1}
 Group   3 Type H   : 5s2p1d contracted to 3s1p1d pattern {311/2/1}

Atom   0O    basis set group =>   1
Atom   1C    basis set group =>   2
Atom   2O    basis set group =>   1
Atom   3C    basis set group =>   2
Atom   4H    basis set group =>   3
Atom   5H    basis set group =>   3
Atom   6H    basis set group =>   3


           ************************************************************
           *        Program running with 4 parallel MPI-processes     *
           *              working on a common directory               *
           ************************************************************
------------------------------------------------------------------------------
                             ORCA STARTUP CALCULATIONS
                           -- RI-GTO INTEGRALS CHOSEN --
------------------------------------------------------------------------------
------------------------------------------------------------------------------
                   ___                                                        
                  /   \      - P O W E R E D   B Y -                         
                 /     \                                                     
                 |  |  |   _    _      __       _____    __    __             
                 |  |  |  | |  | |    /  \     |  _  \  |  |  /  |          
                  \  \/   | |  | |   /    \    | | | |  |  | /  /          
                 / \  \   | |__| |  /  /\  \   | |_| |  |  |/  /          
                |  |  |   |  __  | /  /__\  \  |    /   |      \           
                |  |  |   | |  | | |   __   |  |    \   |  |\   \          
                \     /   | |  | | |  |  |  |  | |\  \  |  | \   \       
                 \___/    |_|  |_| |__|  |__|  |_| \__\ |__|  \__/        
                                                                              
                      - O R C A' S   B I G   F R I E N D -                    
                                      &                                       
                       - I N T E G R A L  F E E D E R -                       
                                                                              
 v1 FN, 2020, v2 2021, v3 2022-2024                                           
------------------------------------------------------------------------------


----------------------
SHARK INTEGRAL PACKAGE
----------------------

Number of atoms                             ...      7
Number of basis functions                   ...    142
Number of shells                            ...     56
Maximum angular momentum                    ...      3
Integral batch strategy                     ... SHARK/LIBINT Hybrid
RI-J (if used) integral strategy            ... SPLIT-RIJ (Revised 2003 algorithm where possible)
Printlevel                                  ...      1
Contraction scheme used                     ... SEGMENTED contraction
Prescreening option                         ... SCHWARTZ
   Thresh                                   ... 2.500e-11
   Tcut                                     ... 2.500e-12
   Tpresel                                  ... 2.500e-12 
Coulomb Range Separation                    ... NOT USED
Exchange Range Separation                   ... NOT USED
Multipole approximations                    ... NOT USED
Finite Nucleus Model                        ... NOT USED
CABS basis                                  ... NOT available
Auxiliary Coulomb fitting basis             ... AVAILABLE
   # of basis functions in Aux-J            ...    229
   # of shells in Aux-J                     ...     75
   Maximum angular momentum in Aux-J        ...      4
Auxiliary J/K fitting basis                 ... NOT available
Auxiliary Correlation fitting basis         ... NOT available
Auxiliary 'external' fitting basis          ... NOT available

Checking pre-screening integrals            ... done (  0.0 sec) Dimension = 56
Check shell pair data                       ... done (  0.0 sec)
Shell pair information
Shell pair cut-off parameter TPreSel        ...   2.5e-12
Total number of shell pairs                 ...      1596
Shell pairs after pre-screening             ...      1563
Total number of primitive shell pairs       ...      4948
Primitive shell pairs kept                  ...      3969
          la=0 lb=0:    411 shell pairs
          la=1 lb=0:    431 shell pairs
          la=1 lb=1:    120 shell pairs
          la=2 lb=0:    227 shell pairs
          la=2 lb=1:    120 shell pairs
          la=2 lb=2:     36 shell pairs
          la=3 lb=0:    116 shell pairs
          la=3 lb=1:     60 shell pairs
          la=3 lb=2:     32 shell pairs
          la=3 lb=3:     10 shell pairs

Calculating one electron integrals          ... done (  0.0 sec)
Calculating RI/J V-Matrix + Cholesky decomp.... done (  0.0 sec)
Calculating Nuclear repulsion               ... done (  0.0 sec) ENN=    111.838153434439 Eh

Diagonalization of the overlap matrix:
Smallest eigenvalue                        ... 7.211e-04
Time for diagonalization                   ...    0.004 sec
Threshold for overlap eigenvalues          ... 1.000e-07
Number of eigenvalues below threshold      ... 0
Time for construction of square roots      ...    0.013 sec
Total time needed                          ...    0.040 sec

-------------------
DFT GRID GENERATION
-------------------

General Integration Accuracy     IntAcc      ... 4.388
Radial Grid Type                 RadialGrid  ... OptM3 with GC (2021)
Angular Grid (max. ang.)         AngularGrid ... 4 (Lebedev-302)
Angular grid pruning method      GridPruning ... 4 (adaptive)
Weight generation scheme         WeightScheme... mBecke (2022)
Basis function cutoff            BFCut       ... 1.0000e-11
Integration weight cutoff        WCut        ... 1.0000e-14
Partially contracted basis set               ... off
Rotationally invariant grid construction     ... off
Angular grids for H and He will be reduced by one unit

Total number of grid points                  ...    34213
Total number of batches                      ...      539
Average number of points per batch           ...       63
Average number of grid points per atom       ...     4888

--------------------
COSX GRID GENERATION
--------------------

GRIDX 1
-------
General Integration Accuracy     IntAcc      ... 3.816
Radial Grid Type                 RadialGrid  ... OptM3 with GC (2021)
Angular Grid (max. ang.)         AngularGrid ... 1 (Lebedev-50)
Angular grid pruning method      GridPruning ... 4 (adaptive)
Weight generation scheme         WeightScheme... mBecke (2022)
Basis function cutoff            BFCut       ... 1.0000e-11
Integration weight cutoff        WCut        ... 1.0000e-14
Partially contracted basis set               ... on
Rotationally invariant grid construction     ... off
Angular grids for H and He will be reduced by one unit

Total number of grid points                  ...     4372
Total number of batches                      ...       38
Average number of points per batch           ...      115
Average number of grid points per atom       ...      625
UseSFitting                                  ... on

GRIDX 2
-------
General Integration Accuracy     IntAcc      ... 4.020
Radial Grid Type                 RadialGrid  ... OptM3 with GC (2021)
Angular Grid (max. ang.)         AngularGrid ... 2 (Lebedev-110)
Angular grid pruning method      GridPruning ... 4 (adaptive)
Weight generation scheme         WeightScheme... mBecke (2022)
Basis function cutoff            BFCut       ... 1.0000e-11
Integration weight cutoff        WCut        ... 1.0000e-14
Partially contracted basis set               ... on
Rotationally invariant grid construction     ... off
Angular grids for H and He will be reduced by one unit

Total number of grid points                  ...     9817
Total number of batches                      ...       79
Average number of points per batch           ...      124
Average number of grid points per atom       ...     1402
UseSFitting                                  ... on

GRIDX 3
-------
General Integration Accuracy     IntAcc      ... 4.338
Radial Grid Type                 RadialGrid  ... OptM3 with GC (2021)
Angular Grid (max. ang.)         AngularGrid ... 3 (Lebedev-194)
Angular grid pruning method      GridPruning ... 4 (adaptive)
Weight generation scheme         WeightScheme... mBecke (2022)
Basis function cutoff            BFCut       ... 1.0000e-11
Integration weight cutoff        WCut        ... 1.0000e-14
Partially contracted basis set               ... on
Rotationally invariant grid construction     ... off
Angular grids for H and He will be reduced by one unit

Total number of grid points                  ...    21702
Total number of batches                      ...      172
Average number of points per batch           ...      126
Average number of grid points per atom       ...     3100
UseSFitting                                  ... on
Initializing property integral containers    ... done (  0.1 sec)

SHARK setup successfully completed in   1.2 seconds

Maximum memory used throughout the entire STARTUP-calculation: 13.8 MB


           ************************************************************
           *        Program running with 4 parallel MPI-processes     *
           *              working on a common directory               *
           ************************************************************
-------------------------------------------------------------------------------
                                 ORCA GUESS
                   Start orbitals & Density for SCF / CASSCF
-------------------------------------------------------------------------------

------------
SCF SETTINGS
------------
Hamiltonian:
 Density Functional     Method          .... DFT(GTOs)
 Exchange Functional    Exchange        .... TPSS
 Correlation Functional Correlation     .... TPSS
 LDA part of GGA corr.  LDAOpt          .... PW91-LDA
 Gradients option       PostSCFGGA      .... off
 Hybrid DFT is turned on
   Fraction HF Exchange ScalHFX         ....  0.100000
   Scaling of DF-GGA-X  ScalDFX         ....  0.900000
   Scaling of DF-GGA-C  ScalDFC         ....  1.000000
   Scaling of DF-LDA-C  ScalLDAC        ....  1.000000
   Perturbative correction              ....  0.000000
   NL short-range parameter             ....  5.200000
 RI-approximation to the Coulomb term is turned on
   Number of AuxJ basis functions       .... 229
   RIJ-COSX (HFX calculated with COS-X)).... on


General Settings:
 Integral files         IntName         .... CS_PdOAc_005_sp_01
 Hartree-Fock type      HFTyp           .... RHF
 Total Charge           Charge          ....   -1
 Multiplicity           Mult            ....    1
 Number of Electrons    NEL             ....   32
 Basis Dimension        Dim             ....  142
 Nuclear Repulsion      ENuc            ....    111.8381534344 Eh

Convergence Acceleration:
 AO-DIIS                CNVDIIS         .... on
   Start iteration      DIISMaxIt       ....     0
   Startup error        DIISStart       ....  0.200000
   # of expansion vecs  DIISMaxEq       ....     5
   Bias factor          DIISBfac        ....   1.050
   Max. coefficient     DIISMaxC        ....  10.000
 MO-DIIS                CNVKDIIS        .... off
 Trust-Rad. Augm. Hess. CNVTRAH         .... auto
   Auto Start mean grad. ratio tolernc. ....  1.125000
   Auto Start start iteration           ....    50
   Auto Start num. interpolation iter.  ....    10
   Max. Number of Micro iterations      ....    24
   Max. Number of Macro iterations      .... Maxiter - #DIIS iter
   Number of Davidson start vectors     ....     2
   Converg. threshold    (grad. norm)   ....   1.000e-05
   Grad. Scal. Fac. for Micro threshold ....   0.100
   Minimum threshold for Micro iter.    ....   1.000e-02
   NR start threshold (gradient norm)   ....   1.000e-04
   Initial trust radius                 ....   0.400
   Minimum AH scaling param. (alpha)    ....   1.000
   Maximum AH scaling param. (alpha)    .... 1000.000
   Quad. conv. algorithm                .... NR
   White noise on init. David. guess    .... on
   Maximum white noise                  ....   0.010
   Pseudo random numbers                .... off
   Inactive MOs                         .... canonical
   Orbital update algorithm             .... Taylor
   Preconditioner                       .... Diag
   Full preconditioner red. dimension   ....   250
 SOSCF                  CNVSOSCF        .... on
   Start iteration      SOSCFMaxIt      ....   150
   Startup grad/error   SOSCFStart      ....  0.001000
   Hessian update       SOSCFHessUp     .... L-BFGS
 Level Shifting         CNVShift        .... on
   Level shift para.    LevelShift      ....    0.2500
   Turn off err/grad.   ShiftErr        ....    0.0000
 Zerner damping         CNVZerner       .... off
 Static damping         CNVDamp         .... on
   Fraction old density DampFac         ....    0.8500
   Max. Damping (<1)    DampMax         ....    0.9800
   Min. Damping (>=0)   DampMin         ....    0.0000
   Turn off err/grad.   DampErr         ....    0.0300

SCF Procedure:
 Maximum # iterations   MaxIter         ....  1500
 SCF integral mode      SCFMode         .... Direct
   Integral package                     .... SHARK and LIBINT hybrid scheme
 Reset frequency        DirectResetFreq ....    20
 Integral Threshold     Thresh          ....  2.500e-11 Eh
 Primitive CutOff       TCut            ....  2.500e-12 Eh

Convergence Tolerance:
 Convergence Check Mode ConvCheckMode   .... Total+1el-Energy
 Convergence forced     ConvForced      .... 0
 Energy Change          TolE            ....  1.000e-08 Eh
 1-El. energy change                    ....  1.000e-05 Eh
 Orbital Gradient       TolG            ....  1.000e-05
 Orbital Rotation angle TolX            ....  1.000e-05
 DIIS Error             TolErr          ....  5.000e-07

------------------------------
INITIAL GUESS: MODEL POTENTIAL
------------------------------
Loading Hartree-Fock densities                     ... done
Calculating cut-offs                               ... done
Initializing the effective Hamiltonian             ... done
Setting up the integral package (SHARK)            ... done
Starting the Coulomb interaction                   ... done (   0.1 sec)
Making the grid                                    ... done (   0.2 sec)
Mapping shells                                     ... done
Starting the XC term evaluation                    ... done (   0.0 sec)
  promolecular density results
     # of electrons  =     30.999141641
     EX              =    -27.339697312
     EC              =     -1.017764752
     EX+EC           =    -28.357462064
Transforming the Hamiltonian                       ... done (   0.0 sec)
Diagonalizing the Hamiltonian                      ... done (   0.0 sec)
Back transforming the eigenvectors                 ... done (   0.0 sec)
Now organizing SCF variables                       ... done
                      ------------------
                      INITIAL GUESS DONE (   0.5 sec)
                      ------------------
             **** ENERGY FILE WAS UPDATED (CS_PdOAc_005_sp_01.en.tmp) ****
Finished Guess after   1.0 sec
Maximum memory used throughout the entire GUESS-calculation: 9.4 MB


           ************************************************************
           *        Program running with 4 parallel MPI-processes     *
           *              working on a common directory               *
           ************************************************************

-------------------------------------------------------------------------------------------
                                      ORCA LEAN-SCF
                              memory conserving SCF solver
-------------------------------------------------------------------------------------------

----------------------------------------D-I-I-S--------------------------------------------
Iteration    Energy (Eh)           Delta-E    RMSDP     MaxDP     DIISErr   Damp  Time(sec)
-------------------------------------------------------------------------------------------
               ***  Starting incremental Fock matrix formation  ***
    1    -228.3631220536137789     0.00e+00  3.03e-03  1.52e-01  3.10e-01  0.850   1.5
Warning: op=0 Small HOMO/LUMO gap (   0.067) - skipping pre-diagonalization
         Will do a full diagonalization
    2    -228.4376474222945603    -7.45e-02  7.18e-03  4.87e-01  2.16e-01  0.850   2.5
                               ***Turning on AO-DIIS***
    3    -228.4817899324859809    -4.41e-02  3.45e-03  2.23e-01  1.31e-01  0.850   1.4
    4    -228.5084672572074851    -2.67e-02  1.43e-03  7.63e-02  9.94e-02  0.850   1.5
    5    -228.5272818434358442    -1.88e-02  6.04e-04  1.24e-02  8.22e-02  0.850   2.3
    6    -228.5419560354131363    -1.47e-02  4.35e-04  1.82e-02  6.97e-02  0.850   1.4
    7    -228.5539515832170423    -1.20e-02  4.31e-04  2.69e-02  5.88e-02  0.850   2.5
    8    -228.5639157069272187    -9.96e-03  4.06e-04  2.76e-02  4.89e-02  0.850   2.1
    9    -228.5721704718595788    -8.25e-03  3.66e-04  2.56e-02  4.08e-02  0.850   1.3
   10    -228.5790305857642011    -6.86e-03  3.28e-04  2.34e-02  3.43e-02  0.850   1.8
   11    -228.5847547400836106    -5.72e-03  2.92e-04  2.12e-02  2.88e-02  0.850   1.4
   12    -228.5895476206002854    -4.79e-03  1.72e-03  1.27e-01  2.41e-02  0.000   1.4
   13    -228.6154940366807296    -2.59e-02  1.26e-04  7.98e-03  2.96e-03  0.000   1.4
                              *** Initializing SOSCF ***
---------------------------------------S-O-S-C-F--------------------------------------
Iteration    Energy (Eh)           Delta-E    RMSDP     MaxDP     MaxGrad    Time(sec)
--------------------------------------------------------------------------------------
   14    -228.6155109699604395    -1.69e-05  8.27e-05  5.50e-03  8.47e-04     2.4
               *** Restarting incremental Fock matrix formation ***
   15    -228.6155211337904802    -1.02e-05  6.74e-05  4.68e-03  4.99e-05     2.5
   16    -228.6155211458721510    -1.21e-08  2.61e-05  1.79e-03  7.10e-05     1.9
   17    -228.6155212097809226    -6.39e-08  2.12e-05  1.46e-03  1.39e-05     1.9
   18    -228.6155212125391358    -2.76e-09  1.46e-06  9.16e-05  4.60e-06     1.3
                 **** Energy Check signals convergence ****

               *****************************************************
               *                     SUCCESS                       *
               *           SCF CONVERGED AFTER  18 CYCLES          *
               *****************************************************

Recomputing exchange energy using gridx3       ... done (    1.006 sec)
Old exchange energy                            :     -2.810061078 Eh
New exchange energy                            :     -2.810057474 Eh
Exchange energy change after final integration :      0.000003604 Eh
Total energy after final integration           :   -228.615517608 Eh
             **** ENERGY FILE WAS UPDATED (CS_PdOAc_005_sp_01.en.tmp) ****

----------------
TOTAL SCF ENERGY
----------------

Total Energy       :       -228.61551760816428 Eh           -6220.94450 eV

Components:
Nuclear Repulsion  :        111.83815343443949 Eh            3043.27087 eV
Electronic Energy  :       -340.45367464697864 Eh           -9264.21547 eV
One Electron Energy:       -541.36691249649152 Eh          -14731.34262 eV
Two Electron Energy:        200.91323784951288 Eh            5467.12715 eV

Virial components:
Potential Energy   :       -456.36920758708095 Eh          -12418.43748 eV
Kinetic Energy     :        227.75368997891670 Eh            6197.49298 eV
Virial Ratio       :          2.00378403366078

DFT components:
N(Alpha)           :       16.000004950028 electrons
N(Beta)            :       16.000004950028 electrons
N(Total)           :       32.000009900057 electrons
E(X)               :      -25.539488568933 Eh       
E(C)               :       -1.065344005499 Eh       
E(XC)              :      -26.604832574432 Eh       

---------------
SCF CONVERGENCE
---------------

  Last Energy change         ...    2.7582e-09  Tolerance :   1.0000e-08
  Last MAX-Density change    ...    9.1561e-05  Tolerance :   1.0000e-07
  Last RMS-Density change    ...    1.4568e-06  Tolerance :   5.0000e-09
  Last DIIS Error            ...    8.4735e-04  Tolerance :   5.0000e-07
  Last Orbital Gradient      ...    4.5965e-06  Tolerance :   1.0000e-05
  Last Orbital Rotation      ...    1.1008e-05  Tolerance :   1.0000e-05


----------------
ORBITAL ENERGIES
----------------

  NO   OCC          E(Eh)            E(eV) 
   0   2.0000     -18.775501      -510.9074 
   1   2.0000     -18.773595      -510.8555 
   2   2.0000      -9.977882      -271.5120 
   3   2.0000      -9.921880      -269.9881 
   4   2.0000      -0.784976       -21.3603 
   5   2.0000      -0.700891       -19.0722 
   6   2.0000      -0.499250       -13.5853 
   7   2.0000      -0.272067        -7.4033 
   8   2.0000      -0.220335        -5.9956 
   9   2.0000      -0.211715        -5.7611 
  10   2.0000      -0.194462        -5.2916 
  11   2.0000      -0.158173        -4.3041 
  12   2.0000      -0.138096        -3.7578 
  13   2.0000      -0.023411        -0.6370 
  14   2.0000      -0.006391        -0.1739 
  15   2.0000      -0.001725        -0.0469 
  16   0.0000       0.207352         5.6423 
  17   0.0000       0.240461         6.5433 
  18   0.0000       0.273705         7.4479 
  19   0.0000       0.298009         8.1092 
  20   0.0000       0.315733         8.5915 
  21   0.0000       0.346921         9.4402 
  22   0.0000       0.392215        10.6727 
  23   0.0000       0.395463        10.7611 
  24   0.0000       0.409898        11.1539 
  25   0.0000       0.448082        12.1929 
  26   0.0000       0.504888        13.7387 
*Only the first 10 virtual orbitals were printed.

                    ********************************
                    * MULLIKEN POPULATION ANALYSIS *
                    ********************************

-----------------------
MULLIKEN ATOMIC CHARGES
-----------------------
   0 O :   -0.529240
   1 C :    0.250406
   2 O :   -0.525956
   3 C :   -0.349007
   4 H :    0.051585
   5 H :    0.052300
   6 H :    0.049913
Sum of atomic charges:   -1.0000000

--------------------------------
MULLIKEN REDUCED ORBITAL CHARGES
--------------------------------
  0 O s       :     3.773289  s :     3.773289
      pz      :     1.645392  p :     4.727586
      px      :     1.569055
      py      :     1.513139
      dz2     :     0.003332  d :     0.026602
      dxz     :     0.004666
      dyz     :     0.003619
      dx2y2   :     0.007101
      dxy     :     0.007882
      f0      :     0.000168  f :     0.001763
      f+1     :     0.000186
      f-1     :     0.000157
      f+2     :     0.000078
      f-2     :     0.000332
      f+3     :     0.000436
      f-3     :     0.000406

  1 C s       :     3.001716  s :     3.001716
      pz      :     0.861818  p :     2.485804
      px      :     0.770479
      py      :     0.853508
      dz2     :     0.028143  d :     0.237114
      dxz     :     0.057252
      dyz     :     0.029651
      dx2y2   :     0.063375
      dxy     :     0.058693
      f0      :     0.001920  f :     0.024960
      f+1     :     0.004429
      f-1     :     0.001548
      f+2     :     0.002955
      f-2     :     0.003608
      f+3     :     0.003974
      f-3     :     0.006526

  2 O s       :     3.776291  s :     3.776291
      pz      :     1.616680  p :     4.721192
      px      :     1.399737
      py      :     1.704775
      dz2     :     0.003813  d :     0.026706
      dxz     :     0.007698
      dyz     :     0.001205
      dx2y2   :     0.007381
      dxy     :     0.006608
      f0      :     0.000140  f :     0.001768
      f+1     :     0.000373
      f-1     :     0.000019
      f+2     :     0.000323
      f-2     :     0.000160
      f+3     :     0.000368
      f-3     :     0.000385

  3 C s       :     3.158862  s :     3.158862
      pz      :     1.059007  p :     3.126671
      px      :     1.026321
      py      :     1.041343
      dz2     :     0.015043  d :     0.059063
      dxz     :     0.008199
      dyz     :     0.010147
      dx2y2   :     0.007047
      dxy     :     0.018626
      f0      :     0.000387  f :     0.004411
      f+1     :     0.000377
      f-1     :     0.001054
      f+2     :     0.000654
      f-2     :     0.000834
      f+3     :     0.000351
      f-3     :     0.000754

  4 H s       :     0.928901  s :     0.928901
      pz      :     0.009007  p :     0.019514
      px      :     0.004737
      py      :     0.005770

  5 H s       :     0.928238  s :     0.928238
      pz      :     0.005081  p :     0.019462
      px      :     0.008822
      py      :     0.005558

  6 H s       :     0.930767  s :     0.930767
      pz      :     0.004613  p :     0.019321
      px      :     0.007251
      py      :     0.007456



                     *******************************
                     * LOEWDIN POPULATION ANALYSIS *
                     *******************************

----------------------
LOEWDIN ATOMIC CHARGES
----------------------
   0 O :   -0.104796
   1 C :   -0.736248
   2 O :   -0.100870
   3 C :   -0.347699
   4 H :    0.099562
   5 H :    0.098425
   6 H :    0.091626

-------------------------------
LOEWDIN REDUCED ORBITAL CHARGES
-------------------------------
  0 O s       :     3.431791  s :     3.431791
      pz      :     1.541546  p :     4.606402
      px      :     1.560187
      py      :     1.504669
      dz2     :     0.007333  d :     0.061224
      dxz     :     0.009066
      dyz     :     0.009368
      dx2y2   :     0.014803
      dxy     :     0.020654
      f0      :     0.000541  f :     0.005378
      f+1     :     0.000539
      f-1     :     0.000441
      f+2     :     0.000207
      f-2     :     0.001027
      f+3     :     0.001287
      f-3     :     0.001336

  1 C s       :     2.784686  s :     2.784686
      pz      :     0.873822  p :     2.757122
      px      :     0.976985
      py      :     0.906315
      dz2     :     0.130245  d :     1.037531
      dxz     :     0.225127
      dyz     :     0.138946
      dx2y2   :     0.273883
      dxy     :     0.269329
      f0      :     0.011559  f :     0.156910
      f+1     :     0.029223
      f-1     :     0.009066
      f+2     :     0.020282
      f-2     :     0.022063
      f+3     :     0.023042
      f-3     :     0.041675

  2 O s       :     3.431869  s :     3.431869
      pz      :     1.527394  p :     4.602386
      px      :     1.491290
      py      :     1.583702
      dz2     :     0.007504  d :     0.061239
      dxz     :     0.018575
      dyz     :     0.002251
      dx2y2   :     0.018618
      dxy     :     0.014290
      f0      :     0.000517  f :     0.005376
      f+1     :     0.000946
      f-1     :     0.000045
      f+2     :     0.001124
      f-2     :     0.000425
      f+3     :     0.001197
      f-3     :     0.001122

  3 C s       :     2.879073  s :     2.879073
      pz      :     1.075850  p :     3.207434
      px      :     1.064698
      py      :     1.066886
      dz2     :     0.057159  d :     0.239050
      dxz     :     0.030022
      dyz     :     0.057476
      dx2y2   :     0.024222
      dxy     :     0.070171
      f0      :     0.002542  f :     0.022143
      f+1     :     0.002791
      f-1     :     0.004674
      f+2     :     0.004149
      f-2     :     0.002805
      f+3     :     0.001861
      f-3     :     0.003321

  4 H s       :     0.841716  s :     0.841716
      pz      :     0.027029  p :     0.058722
      px      :     0.013786
      py      :     0.017907

  5 H s       :     0.842849  s :     0.842849
      pz      :     0.015041  p :     0.058725
      px      :     0.027694
      py      :     0.015991

  6 H s       :     0.849611  s :     0.849611
      pz      :     0.013216  p :     0.058763
      px      :     0.022903
      py      :     0.022644



                      *****************************
                      * MAYER POPULATION ANALYSIS *
                      *****************************

  NA   - Mulliken gross atomic population
  ZA   - Total nuclear charge
  QA   - Mulliken gross atomic charge
  VA   - Mayer's total valence
  BVA  - Mayer's bonded valence
  FA   - Mayer's free valence

  ATOM       NA         ZA         QA         VA         BVA        FA
  0 O      8.5292     8.0000    -0.5292     1.8643     1.8643     0.0000
  1 C      5.7496     6.0000     0.2504     4.6323     4.6323    -0.0000
  2 O      8.5260     8.0000    -0.5260     1.8784     1.8784    -0.0000
  3 C      6.3490     6.0000    -0.3490     3.6641     3.6641    -0.0000
  4 H      0.9484     1.0000     0.0516     0.9898     0.9898    -0.0000
  5 H      0.9477     1.0000     0.0523     0.9925     0.9925     0.0000
  6 H      0.9501     1.0000     0.0499     1.0036     1.0036     0.0000

  Mayer bond orders larger than 0.100000
B(  0-O ,  1-C ) :   1.8436 B(  1-C ,  2-O ) :   1.8603 B(  1-C ,  3-C ) :   0.9220 
B(  3-C ,  4-H ) :   0.9631 B(  3-C ,  5-H ) :   0.9622 B(  3-C ,  6-H ) :   0.9545 


-------
TIMINGS
-------

Total SCF time: 0 days 0 hours 0 min 35 sec 

Total time                  ....      35.054 sec
Sum of individual times     ....      34.357 sec  ( 98.0%)

SCF preparation             ....       1.058 sec  (  3.0%)
Fock matrix formation       ....      24.217 sec  ( 69.1%)
  Startup                   ....       1.093 sec  (  4.5% of F)
  Split-RI-J                ....       5.567 sec  ( 23.0% of F)
  Chain of spheres X        ....       8.683 sec  ( 35.9% of F)
  XC integration            ....       5.919 sec  ( 24.4% of F)
    Basis function eval.    ....       0.718 sec  ( 12.1% of XC)
    Density eval.           ....       1.326 sec  ( 22.4% of XC)
    XC-Functional eval.     ....       0.413 sec  (  7.0% of XC)
    XC-Potential eval.      ....       1.473 sec  ( 24.9% of XC)
Diagonalization             ....       0.000 sec  (  0.0%)
Density matrix formation    ....       3.438 sec  (  9.8%)
Total Energy calculation    ....       0.836 sec  (  2.4%)
Population analysis         ....       0.230 sec  (  0.7%)
Orbital Transformation      ....       0.201 sec  (  0.6%)
Orbital Orthonormalization  ....       0.000 sec  (  0.0%)
DIIS solution               ....       3.952 sec  ( 11.3%)
SOSCF solution              ....       0.424 sec  (  1.2%)
Finished LeanSCF after  35.2 sec

Maximum memory used throughout the entire LEANSCF-calculation: 12.0 MB


-------------------------------------------------------------------------------
                          DFT DISPERSION CORRECTION                            
                                                                               
                              DFTD3 V3.1  Rev 1                                
                          USING Becke-Johnson damping                          
-------------------------------------------------------------------------------
The TPSSH functional is recognized
Active option DFTDOPT                   ...         4   

molecular C6(AA) [au] = 469.208565 


            DFT-D V3
 parameters
 s6 scaling factor         :     1.0000 
 a1 scaling factor         :     0.4529 
 s8 scaling factor         :     2.2382 
 a2 scaling factor         :     4.6550 
 ad hoc parameters k1-k3   :    16.0000     1.3333    -4.0000 

 Edisp/kcal,au: -2.531855571040  -0.004034768248 
 E6   /kcal   :  -1.247494037 
 E8   /kcal   :  -1.284361534 
 % E8         :  50.728072665 

-------------------------   ----------------
Dispersion correction           -0.004034768
-------------------------   ----------------


-------------------------   --------------------
FINAL SINGLE POINT ENERGY      -228.619552376412
-------------------------   --------------------



           ************************************************************
           *        Program running with 4 parallel MPI-processes     *
           *              working on a common directory               *
           ************************************************************

------------------------------------------------------------------------------
                              ORCA PROPERTY CALCULATIONS
------------------------------------------------------------------------------

GBWName                                 ... CS_PdOAc_005_sp_01.gbw
Number of atoms                         ...      7
Number of basis functions               ...    142
Max core memory                         ...   3500 MB

Electric properties:
Dipole moment                           ... YES
Quadrupole moment                       ...  NO
Static polarizability (Dipole/Dipole)   ...  NO
Static polarizability (Dipole/Quad.)    ...  NO
Static polarizability (Quad./Quad.)     ...  NO
Static polarizability (Velocity)        ...  NO

Atomic electric properties:
Dipole moment                           ...  NO
Quadrupole moment                       ...  NO
Static polarizability                   ...  NO

Choice of electric origin               ... Center of mass
Position of electric origin             ...     1.642336    -1.537230     0.946322

General magnetic properties:
Magnetizability                         ...  NO

EPR properties:
g-Tensor (aka g-matrix)                 ...  NO
Zero-Field splitting spin-orbit         ...  NO
Zero-field splitting spin-spin          ...  NO
Hyperfine couplings                     ...  NO (   0 nuclei)
Quadrupole couplings                    ...  NO (   0 nuclei)
Contact density                         ...  NO (   0 nuclei)

NMR properties:
Chemical shifts                         ...  NO (   0 nuclei)
Spin-rotation constants                 ...  NO (   0 nuclei)
Spin-spin couplings                     ...  NO (   0 nuclei,    0 pairs)

Choice of magnetic origin               ... GIAO
Position of magnetic origin             ...     0.000000     0.000000     0.000000

Properties with geometric perturbations:
SCF Hessian                             ...  NO
IR spectrum                             ...  NO
VCD spectrum                            ...  NO
X-ray spectroscopy properties:
SCF XES/XAS/RIXS spectra                ...  NO


-------------
DIPOLE MOMENT
-------------

Method             : SCF
Type of density    : Electron Density
Multiplicity       :   1
Irrep              :   0
Energy             :  -228.6155176081642821 Eh
Relativity type    : 
Basis              : AO
                                X                 Y                 Z
Electronic contribution:      1.191368489       2.588971190      -2.806119643
Nuclear contribution   :     -1.505608059      -3.323413584       3.587294834
                        -----------------------------------------
Total Dipole Moment    :     -0.314239570      -0.734442394       0.781175191
                        -----------------------------------------
Magnitude (a.u.)       :      1.117312318
Magnitude (Debye)      :      2.839982216



--------------------
Rotational spectrum 
--------------------
 
Rotational constants in cm-1:             0.383304             0.332506             0.184215 
Rotational constants in MHz :         11491.168183          9968.291451          5522.636795 

Dipole components along the rotational axes: 
x,y,z [a.u.] :    -1.114119     0.084404     0.001306 
x,y,z [Debye]:    -2.831865     0.214537     0.003320 

 

Dipole moment calculation done in   0.1 sec 

Maximum memory used throughout the entire PROP-calculation: 6.3 MB

--------------------------------
SUGGESTED CITATIONS FOR THIS RUN
--------------------------------

Below you find a list of papers that are relevant to this ORCA run
We neither can nor want to force you to cite these papers, but we appreciate if you do
You receive ORCA, which is the product of decades of hard work by many enthusiastic individuals, for free
The only thing we kindly ask in return is that you cite our papers,
We deeply appreciate it, if you show your appreciation for ORCA by not just citing the generic ORCA reference.

Please note that relegating all ORCA citations to the supporting information does *not* help us.
SI sections are not indexed - citations you put there will not count into any citation statistics
But we need these citations in order to attract the funding resources that allow us to do what we are doing

Therefore, if you are a happy ORCA user, please consider citing a few of the papers listed below in the main body of your paper

In addition to the list printed below, the program has created the file CS_PdOAc_005_sp_01.bibtex that contains the list in bibtex format
You can import this file easily into all common literature databanks and citation aid programs


List of essential papers. We consider these as the minimum necessary citations

  1. Neese,F.
     Software update: the ORCA program system, version 5.0
     WIRES Comput. Molec. Sci., 2022 12(1)e1606
     doi.org/10.1002/wcms.1606

List of papers to cite with high priority. The work reported in these papers was absolutely
necessary for this run to complete.
Our perspective: the developers of density functionals and basis sets usually get cited in chemistry papers
Good! But without the algorithms to do something with them, the functionals or basis sets would not do anything.
Hence, in our opinion, the algorithm design and method developments papers are equally worthy of getting cited

  1. Neese,F.
     An improvement of the resolution of the identity approximation for the formation of the Coulomb matrix
     J. Comp. Chem., 2003 24(14)1740-1747
     doi.org/10.1002/jcc.10318
  2. Neese,F.; Wennmohs,F.; Hansen,A.; Becker,U.
     Efficient, approximate and parallel Hartree-Fock and hybrid DFT calculations. A 'chain-of-spheres' algorithm for the Hartree-Fock exchange
     Chem. Phys., 2009 356(1-3)98-109
     doi.org/10.1016/j.chemphys.2008.10.036
  3. Helmich-Paris,B.; de Souza,B.; Neese,F.; Izsák,R.
     An improved chain of spheres for exchange algorithm
     J. Chem. Phys., 2021 155 104109
     doi.org/doi: 10.1063/5.0058766.
  4. Neese,F.
     The SHARK Integral Generation and Digestion System
     J. Comp. Chem., 2022  1-16
     doi.org/10.1002/jcc.26942
  5. Grimme,S.; Antony,J.; Ehrlich,S.; Krieg,H.
     A consistent and accurate ab initio parametrization of density functional dispersion correction (DFT-D) for the 94 elements H-Pu
     J. Chem. Phys., 2010 132 154104-XXXX
     doi.org/10.1063/1.3382344
  6. Grimme,S.; Ehrlich,S.; Goerigk,L.
     Effect of the damping function in dispersion corrected density functional theory
     J. Comput. Chem., 2011 32(7)1456-1465
     doi.org/10.1002/jcc.21759

List of suggested additional citations. These are papers that are important in the 'surrounding' of 
of this run, or papers that preceded the highly important papers. If you like your results we are grateful for a citation.

  1. Izsak,R.; Neese,F.
     An overlap fitted chain of spheres exchange method
     J. Chem. Phys., 2011 135 144105
     doi.org/10.1063/1.3646921
  2. Izsak,R.; Hansen,A.; Neese,F.
     The resolution of identity and chain of spheres approximations for the LPNO-CCSD singles Fock term
     Molec. Phys., 2012 110 2413-2417
     doi.org/10.1080/00268976.2012.687466
  3. Neese,F.
     The ORCA program system
     WIRES Comput. Molec. Sci., 2012 2(1)73-78
     doi.org/10.1002/wcms.81
  4. Izsak,R.; Neese,F.; Klopper,W.
     Robust fitting techniques in the chain of spheres approximation to the Fock exchange: The role of the complementary space
     J. Chem. Phys., 2013 139 
     doi.org/10.1063/1.4819264
  5. Neese,F.
     Software update: the ORCA program system, version 4.0
     WIRES Comput. Molec. Sci., 2018 8(1)1-6
     doi.org/10.1002/wcms.1327
  6. Neese,F.; Wennmohs,F.; Becker,U.; Riplinger,C.
     The ORCA quantum chemistry program package
     J. Chem. Phys., 2020 152 Art. No. L224108
     doi.org/10.1063/5.0004608

List of optional additional citations

  1. Neese,F.
     Approximate second-order SCF convergence for spin unrestricted wavefunctions
     Chem. Phys. Lett., 2000 325(1-3)93-98
     doi.org/10.1016/s0009-2614(00)00662-x

Timings for individual modules:

Sum of individual times          ...       46.340 sec (=   0.772 min)
Startup calculation              ...        4.984 sec (=   0.083 min)  10.8 %
SCF iterations                   ...       39.636 sec (=   0.661 min)  85.5 %
Property calculations            ...        1.720 sec (=   0.029 min)   3.7 %
                             ****ORCA TERMINATED NORMALLY****
TOTAL RUN TIME: 0 days 0 hours 0 minutes 49 seconds 312 msec
