
                                 *****************
                                 * O   R   C   A *
                                 *****************

                                            #,                                       
                                            ###                                      
                                            ####                                     
                                            #####                                    
                                            ######                                   
                                           ########,                                 
                                     ,,################,,,,,                         
                               ,,#################################,,                 
                          ,,##########################################,,             
                       ,#########################################, ''#####,          
                    ,#############################################,,   '####,        
                  ,##################################################,,,,####,       
                ,###########''''           ''''###############################       
              ,#####''   ,,,,##########,,,,          '''####'''          '####       
            ,##' ,,,,###########################,,,                        '##       
           ' ,,###''''                  '''############,,,                           
         ,,##''                                '''############,,,,        ,,,,,,###''
      ,#''                                            '''#######################'''  
     '                                                          ''''####''''         
             ,#######,   #######,   ,#######,      ##                                
            ,#'     '#,  ##    ##  ,#'     '#,    #''#        ,####,   ,####,        
            ##       ##  ##   ,#'  ##            #'  '#       #'       #'  '#        
            ##       ##  #######   ##           ,######,      #####,   #    #        
            '#,     ,#'  ##    ##  '#,     ,#' ,#      #,     #,   #   #,  ,#        
             '#######'   ##     ##  '#######'  #'      '#     '####' # '####'        



                #########################################################
                #                        -***-                          #
                #          Department of theory and spectroscopy        #
                #                                                       #
                #                      Frank Neese                      #
                #                                                       #
                #     Directorship, Architecture, Infrastructure        #
                #                    SHARK, DRIVERS                     #
                #        Core code/Algorithms in most modules           #
                #                                                       #
                #        Max Planck Institute fuer Kohlenforschung      #
                #                Kaiser Wilhelm Platz 1                 #
                #                 D-45470 Muelheim/Ruhr                 #
                #                      Germany                          #
                #                                                       #
                #                  All rights reserved                  #
                #                        -***-                          #
                #########################################################


                         Program Version 6.0.0  -   RELEASE  -


 With contributions from (in alphabetic order):
   Daniel Aravena         : Magnetic Suceptibility
   Michael Atanasov       : Ab Initio Ligand Field Theory (pilot matlab implementation)
   Alexander A. Auer      : GIAO ZORA, VPT2 properties, NMR spectrum
   Ute Becker             : All parallelization in ORCA, NUMFREQ, NUMCALC
   Giovanni Bistoni       : ED, misc. LED, open-shell LED, HFLD
   Martin Brehm           : Molecular dynamics
   Dmytro Bykov           : pre 5.0 version of the SCF Hessian
   Marcos Casanova-Páez   : Triplet and SCS-CIS(D). UHF-(DLPNO)-IP/EA/STEOM-CCSD. UHF-CVS-IP/STEOM-CCSD
   Vijay G. Chilkuri      : MRCI spin determinant printing, contributions to CSF-ICE
   Pauline Colinet        : FMM embedding
   Dipayan Datta          : RHF DLPNO-CCSD density
   Achintya Kumar Dutta   : EOM-CC, STEOM-CC
   Nicolas Foglia         : Exact transition moments, OPA infrastructure, MCD improvements
   Dmitry Ganyushin       : Spin-Orbit,Spin-Spin,Magnetic field MRCI
   Miquel Garcia          : C-PCM and meta-GGA Hessian, CCSD/C-PCM, Gaussian charge scheme
   Tiago L. C. Gouveia    : GS-ROHF, GS-ROCIS
   Yang Guo               : DLPNO-NEVPT2, F12-NEVPT2, CIM, IAO-localization
   Andreas Hansen         : Spin unrestricted coupled pair/coupled cluster methods
   Ingolf Harden          : AUTO-CI MPn and infrastructure 
   Benjamin Helmich-Paris : MC-RPA, TRAH-(SCF,CASSCF), AVAS, COSX integrals, SCF dyn. polar.
   Lee Huntington         : MR-EOM, pCC
   Robert Izsak           : Overlap fitted RIJCOSX, COSX-SCS-MP3, EOM
   Riya Kayal             : Wick's Theorem for AUTO-CI, AUTO-CI UHF-CCSDT
   Emily Kempfer          : AUTO-CI, RHF CISDT and CCSDT
   Christian Kollmar      : KDIIS, OOCD, Brueckner-CCSD(T), CCSD density, CASPT2, CASPT2-K, improved NEVPT2
   Axel Koslowski         : Symmetry handling
   Simone Kossmann        : Meta GGA functionals, TD-DFT gradient, OOMP2, (MP2 Hessian; deprecated post 5.0)
   Lucas Lang             : DCDCAS
   Marvin Lechner         : AUTO-CI (C++ implementation), FIC-MRCC
   Spencer Leger          : CASSCF response
   Dagmar Lenk            : GEPOL surface, SMD, ORCA-2-JSON
   Dimitrios Liakos       : Extrapolation schemes; Compound Job, initial MDCI parallelization
   Dimitrios Manganas     : Further ROCIS development; embedding schemes. LFT, Crystal Embedding
   Dimitrios Pantazis     : SARC Basis sets
   Anastasios Papadopoulos: AUTO-CI, single reference methods and gradients
   Taras Petrenko         : pre 6.0 DFT Hessian and TD-DFT gradient, (ASA, deprecated), ECA, 1-Electron XAS/XES, NRVS
   Peter Pinski           : DLPNO-MP2, DLPNO-MP2 Gradient
   Christoph Reimann      : Effective Core Potentials
   Marius Retegan         : Local ZFS, SOC
   Christoph Riplinger    : Optimizer, TS searches, QM/MM, DLPNO-CCSD(T), (RO)-DLPNO pert. Triples
   Michael Roemelt        : Original ROCIS implementation
   Masaaki Saitow         : Open-shell DLPNO-CCSD energy and density
   Barbara Sandhoefer     : DKH picture change effects
   Kantharuban Sivalingam : CASSCF convergence/infrastructure, NEVPT2 and variants, FIC-MRCI
   Bernardo de Souza      : ESD, SOC TD-DFT
   Georgi Stoychev        : AutoAux, RI-MP2 NMR, DLPNO-MP2 response, X2C
   Van Anh Tran           : RI-MP2 g-tensors
   Willem Van den Heuvel  : Paramagnetic NMR
   Zikuan Wang            : NOTCH, Electric field optimization 
   Frank Wennmohs         : Technical directorship and infrastructure
   Hang Xu                : AUTO-CI-Response properties 


 We gratefully acknowledge several colleagues who have allowed us to
 interface, adapt or use parts of their codes:
   Stefan Grimme, W. Hujo, H. Kruse, P. Pracht,  : VdW corrections, initial TS optimization,
                  C. Bannwarth, S. Ehlert,         DFT functionals, gCP, sTDA/sTD-DF
                  L. Wittmann, M. Mueller
   Ed Valeev, F. Pavosevic, A. Kumar             : LibInt (2-el integral package), F12 methods
   Garnet Chan, S. Sharma, J. Yang, R. Olivares  : DMRG
   Ulf Ekstrom                                   : XCFun DFT Library
   Mihaly Kallay                                 : mrcc  (arbitrary order and MRCC methods)
   Frank Weinhold                                : gennbo (NPA and NBO analysis)
   Simon Mueller                                 : openCOSMO-RS
   Christopher J. Cramer and Donald G. Truhlar   : smd solvation model
   Lars Goerigk                                  : TD-DFT with DH, B97 family of functionals
   V. Asgeirsson, H. Jonsson                     : NEB implementation
   FAccTs GmbH                                   : IRC, NEB, NEB-TS, DLPNO-Multilevel, CI-OPT
                                                   MM, QMMM, 2- and 3-layer-ONIOM, Crystal-QMMM,
                                                   LR-CPCM, SF, NACMEs, symmetry and pop. for TD-DFT,
                                                   nearIR, NL-DFT gradient (VV10), updates on ESD,
                                                   ML-optimized integration grids, MBIS, APM,
                                                   GOAT, DOCKER, SOLVATOR, interface openCOSMO-RS
   S Lehtola, MJT Oliveira, MAL Marques          : LibXC Library
   Liviu Ungur et al                             : ANISO software


 Your calculation uses the libint2 library for the computation of 2-el integrals
 For citations please refer to: http://libint.valeyev.net

 Your ORCA version has been built with support for libXC version: 6.2.2
 For citations please refer to: https://libxc.gitlab.io

 This ORCA versions uses:
   CBLAS   interface :  Fast vector & matrix operations
   LAPACKE interface :  Fast linear algebra routines
   SCALAPACK package :  Parallel linear algebra routines
   Shared memory     :  Shared parallel matrices
   BLAS/LAPACK       :  OpenBLAS 0.3.27  USE64BITINT DYNAMIC_ARCH NO_AFFINITY Sandybridge SINGLE_THREADED
        Core in use  :  Sandybridge
   Copyright (c) 2011-2014, The OpenBLAS Project


NOTE: MaxCore=3500 MB was set to SCF,MP2,MDCI,CIPSI,MRCI and CIS
      => If you want to overwrite this, your respective input block should be placed after the MaxCore statement
Your calculation utilizes the atom-pairwise dispersion correction
with the Becke-Johnson damping scheme (D3BJ)


Warning: RI is on but no J-basis has been assigned. Assigning Def2/J (nothing to worry about!)
================================================================================

----- Orbital basis set information -----
Your calculation utilizes the basis: def2-TZVP
   F. Weigend and R. Ahlrichs, Phys. Chem. Chem. Phys. 7, 3297 (2005).

----- AuxJ basis set information -----
Your calculation utilizes the auxiliary basis: def2/J
   F. Weigend, Phys. Chem. Chem. Phys. 8, 1057 (2006).

================================================================================
                                        WARNINGS
                       Please study these warnings very carefully!
================================================================================

Using LibXC functional ID 497 : Re-regularized SCAN exchange by Furness et al
[ 1]  J. W. Furness, A. D. Kaplan, J. Ning, J. P. Perdew, and J. Sun.,  J. Phys. Chem. Lett. 11, 8208-8215 (2020)
[ 2]  J. W. Furness, A. D. Kaplan, J. Ning, J. P. Perdew, and J. Sun.,  J. Phys. Chem. Lett. 11, 9248-9248 (2020)
Using LibXC functional ID 498 : Re-regularized SCAN correlation by Furness et al
[ 1]  J. W. Furness, A. D. Kaplan, J. Ning, J. P. Perdew, and J. Sun.,  J. Phys. Chem. Lett. 11, 8208-8215 (2020)
[ 2]  J. W. Furness, A. D. Kaplan, J. Ning, J. P. Perdew, and J. Sun.,  J. Phys. Chem. Lett. 11, 9248-9248 (2020)
Using LibXC functional ID 497 : Re-regularized SCAN exchange by Furness et al
[ 1]  J. W. Furness, A. D. Kaplan, J. Ning, J. P. Perdew, and J. Sun.,  J. Phys. Chem. Lett. 11, 8208-8215 (2020)
[ 2]  J. W. Furness, A. D. Kaplan, J. Ning, J. P. Perdew, and J. Sun.,  J. Phys. Chem. Lett. 11, 9248-9248 (2020)
Using LibXC functional ID 498 : Re-regularized SCAN correlation by Furness et al
[ 1]  J. W. Furness, A. D. Kaplan, J. Ning, J. P. Perdew, and J. Sun.,  J. Phys. Chem. Lett. 11, 8208-8215 (2020)
[ 2]  J. W. Furness, A. D. Kaplan, J. Ning, J. P. Perdew, and J. Sun.,  J. Phys. Chem. Lett. 11, 9248-9248 (2020)

================================================================================
                                       INPUT FILE
================================================================================
NAME = CS_PdOAc_006_sp_02.inp
|  1> !r2SCANh def2-TZVP d3 TightSCF SlowConv RIJCOSX defgrid2
|  2> 
|  3> %pal
|  4> nprocs 4
|  5> end
|  6> 
|  7> %scf
|  8> MaxIter 1500
|  9> end
| 10> 
| 11> %maxcore 3500
| 12> 
| 13>  
| 14> 
| 15> * xyz 0 1
| 16>   O          -0.29337834737891      0.03471851820976      0.24047516870125
| 17>   C           0.75293780261439     -0.78317840469775      0.45109594493049
| 18>   O           1.77714897841705     -0.69028719883864     -0.16966802191010
| 19>   C           0.46156459990035     -1.78385145482332      1.53073595076212
| 20>   H           0.21871271639251     -1.26155552193283      2.47129267410843
| 21>   H          -0.42021473257458     -2.38701473417976      1.25651203332911
| 22>   H           1.33389312976003     -2.43525782944194      1.67527504778182
| 23>   H          -0.02691464813084      0.65299033170450     -0.46543474370312
| 24> *
| 25> 
| 26>                          ****END OF INPUT****
================================================================================

                       ****************************
                       * Single Point Calculation *
                       ****************************

---------------------------------
CARTESIAN COORDINATES (ANGSTROEM)
---------------------------------
  O     -0.293378    0.034719    0.240475
  C      0.752938   -0.783178    0.451096
  O      1.777149   -0.690287   -0.169668
  C      0.461565   -1.783851    1.530736
  H      0.218713   -1.261556    2.471293
  H     -0.420215   -2.387015    1.256512
  H      1.333893   -2.435258    1.675275
  H     -0.026915    0.652990   -0.465435

----------------------------
CARTESIAN COORDINATES (A.U.)
----------------------------
  NO LB      ZA    FRAG     MASS         X           Y           Z
   0 O     8.0000    0    15.999   -0.554405    0.065608    0.454432
   1 C     6.0000    0    12.011    1.422846   -1.479993    0.852448
   2 O     8.0000    0    15.999    3.358325   -1.304454   -0.320626
   3 C     6.0000    0    12.011    0.872231   -3.370991    2.892672
   4 H     1.0000    0     1.008    0.413307   -2.383994    4.670066
   5 H     1.0000    0     1.008   -0.794091   -4.510804    2.374464
   6 H     1.0000    0     1.008    2.520693   -4.601970    3.165811
   7 H     1.0000    0     1.008   -0.050861    1.233973   -0.879544

--------------------------------
INTERNAL COORDINATES (ANGSTROEM)
--------------------------------
 O      0   0   0     0.000000000000     0.00000000     0.00000000
 C      1   0   0     1.344653848995     0.00000000     0.00000000
 O      2   1   0     1.201243194067   122.37605132     0.00000000
 C      2   1   3     1.500622350460   111.54398085   179.96105844
 H      4   2   1     1.102912974205   109.90841528   301.03240716
 H      4   2   1     1.102968489866   109.93893574    58.74840532
 H      4   2   1     1.098261753622   109.63218722   179.89342106
 H      1   2   3     0.975485388312   106.63747128   359.77187208

---------------------------
INTERNAL COORDINATES (A.U.)
---------------------------
 O      0   0   0     0.000000000000     0.00000000     0.00000000
 C      1   0   0     2.541027519524     0.00000000     0.00000000
 O      2   1   0     2.270020657024   122.37605132     0.00000000
 C      2   1   3     2.835765272810   111.54398085   179.96105844
 H      4   2   1     2.084203470796   109.90841528   301.03240716
 H      4   2   1     2.084308380191   109.93893574    58.74840532
 H      4   2   1     2.075413937705   109.63218722   179.89342106
 H      1   2   3     1.843400231551   106.63747128   359.77187208

---------------------
BASIS SET INFORMATION
---------------------
There are 3 groups of distinct atoms

 Group   1 Type O   : 11s6p2d1f contracted to 5s3p2d1f pattern {62111/411/11/1}
 Group   2 Type C   : 11s6p2d1f contracted to 5s3p2d1f pattern {62111/411/11/1}
 Group   3 Type H   : 5s1p contracted to 3s1p pattern {311/1}

Atom   0O    basis set group =>   1
Atom   1C    basis set group =>   2
Atom   2O    basis set group =>   1
Atom   3C    basis set group =>   2
Atom   4H    basis set group =>   3
Atom   5H    basis set group =>   3
Atom   6H    basis set group =>   3
Atom   7H    basis set group =>   3
---------------------------------
AUXILIARY/J BASIS SET INFORMATION
---------------------------------
There are 3 groups of distinct atoms

 Group   1 Type O   : 12s5p4d2f1g contracted to 6s4p3d1f1g pattern {711111/2111/211/2/1}
 Group   2 Type C   : 12s5p4d2f1g contracted to 6s4p3d1f1g pattern {711111/2111/211/2/1}
 Group   3 Type H   : 5s2p1d contracted to 3s1p1d pattern {311/2/1}

Atom   0O    basis set group =>   1
Atom   1C    basis set group =>   2
Atom   2O    basis set group =>   1
Atom   3C    basis set group =>   2
Atom   4H    basis set group =>   3
Atom   5H    basis set group =>   3
Atom   6H    basis set group =>   3
Atom   7H    basis set group =>   3


           ************************************************************
           *        Program running with 4 parallel MPI-processes     *
           *              working on a common directory               *
           ************************************************************
------------------------------------------------------------------------------
                             ORCA STARTUP CALCULATIONS
                           -- RI-GTO INTEGRALS CHOSEN --
------------------------------------------------------------------------------
------------------------------------------------------------------------------
                   ___                                                        
                  /   \      - P O W E R E D   B Y -                         
                 /     \                                                     
                 |  |  |   _    _      __       _____    __    __             
                 |  |  |  | |  | |    /  \     |  _  \  |  |  /  |          
                  \  \/   | |  | |   /    \    | | | |  |  | /  /          
                 / \  \   | |__| |  /  /\  \   | |_| |  |  |/  /          
                |  |  |   |  __  | /  /__\  \  |    /   |      \           
                |  |  |   | |  | | |   __   |  |    \   |  |\   \          
                \     /   | |  | | |  |  |  |  | |\  \  |  | \   \       
                 \___/    |_|  |_| |__|  |__|  |_| \__\ |__|  \__/        
                                                                              
                      - O R C A' S   B I G   F R I E N D -                    
                                      &                                       
                       - I N T E G R A L  F E E D E R -                       
                                                                              
 v1 FN, 2020, v2 2021, v3 2022-2024                                           
------------------------------------------------------------------------------


----------------------
SHARK INTEGRAL PACKAGE
----------------------

Number of atoms                             ...      8
Number of basis functions                   ...    148
Number of shells                            ...     60
Maximum angular momentum                    ...      3
Integral batch strategy                     ... SHARK/LIBINT Hybrid
RI-J (if used) integral strategy            ... SPLIT-RIJ (Revised 2003 algorithm where possible)
Printlevel                                  ...      1
Contraction scheme used                     ... SEGMENTED contraction
Prescreening option                         ... SCHWARTZ
   Thresh                                   ... 2.500e-11
   Tcut                                     ... 2.500e-12
   Tpresel                                  ... 2.500e-12 
Coulomb Range Separation                    ... NOT USED
Exchange Range Separation                   ... NOT USED
Multipole approximations                    ... NOT USED
Finite Nucleus Model                        ... NOT USED
CABS basis                                  ... NOT available
Auxiliary Coulomb fitting basis             ... AVAILABLE
   # of basis functions in Aux-J            ...    240
   # of shells in Aux-J                     ...     80
   Maximum angular momentum in Aux-J        ...      4
Auxiliary J/K fitting basis                 ... NOT available
Auxiliary Correlation fitting basis         ... NOT available
Auxiliary 'external' fitting basis          ... NOT available

Checking pre-screening integrals            ... done (  0.0 sec) Dimension = 60
Check shell pair data                       ... done (  0.9 sec)
Shell pair information
Shell pair cut-off parameter TPreSel        ...   2.5e-12
Total number of shell pairs                 ...      1830
Shell pairs after pre-screening             ...      1796
Total number of primitive shell pairs       ...      5560
Primitive shell pairs kept                  ...      4467
          la=0 lb=0:    501 shell pairs
          la=1 lb=0:    510 shell pairs
          la=1 lb=1:    136 shell pairs
          la=2 lb=0:    251 shell pairs
          la=2 lb=1:    128 shell pairs
          la=2 lb=2:     36 shell pairs
          la=3 lb=0:    128 shell pairs
          la=3 lb=1:     64 shell pairs
          la=3 lb=2:     32 shell pairs
          la=3 lb=3:     10 shell pairs

Calculating one electron integrals          ... done (  0.0 sec)
Calculating RI/J V-Matrix + Cholesky decomp.... done (  0.0 sec)
Calculating Nuclear repulsion               ... done (  0.0 sec) ENN=    121.399630613160 Eh

Diagonalization of the overlap matrix:
Smallest eigenvalue                        ... 4.296e-04
Time for diagonalization                   ...    0.004 sec
Threshold for overlap eigenvalues          ... 1.000e-07
Number of eigenvalues below threshold      ... 0
Time for construction of square roots      ...    0.010 sec
Total time needed                          ...    0.034 sec

-------------------
DFT GRID GENERATION
-------------------

General Integration Accuracy     IntAcc      ... 4.388
Radial Grid Type                 RadialGrid  ... OptM3 with GC (2021)
Angular Grid (max. ang.)         AngularGrid ... 4 (Lebedev-302)
Angular grid pruning method      GridPruning ... 4 (adaptive)
Weight generation scheme         WeightScheme... mBecke (2022)
Basis function cutoff            BFCut       ... 1.0000e-11
Integration weight cutoff        WCut        ... 1.0000e-14
Partially contracted basis set               ... off
Rotationally invariant grid construction     ... off
Angular grids for H and He will be reduced by one unit

Total number of grid points                  ...    37426
Total number of batches                      ...      589
Average number of points per batch           ...       63
Average number of grid points per atom       ...     4678

--------------------
COSX GRID GENERATION
--------------------

GRIDX 1
-------
General Integration Accuracy     IntAcc      ... 3.816
Radial Grid Type                 RadialGrid  ... OptM3 with GC (2021)
Angular Grid (max. ang.)         AngularGrid ... 1 (Lebedev-50)
Angular grid pruning method      GridPruning ... 4 (adaptive)
Weight generation scheme         WeightScheme... mBecke (2022)
Basis function cutoff            BFCut       ... 1.0000e-11
Integration weight cutoff        WCut        ... 1.0000e-14
Partially contracted basis set               ... on
Rotationally invariant grid construction     ... off
Angular grids for H and He will be reduced by one unit

Total number of grid points                  ...     4800
Total number of batches                      ...       42
Average number of points per batch           ...      114
Average number of grid points per atom       ...      600
UseSFitting                                  ... on

GRIDX 2
-------
General Integration Accuracy     IntAcc      ... 4.020
Radial Grid Type                 RadialGrid  ... OptM3 with GC (2021)
Angular Grid (max. ang.)         AngularGrid ... 2 (Lebedev-110)
Angular grid pruning method      GridPruning ... 4 (adaptive)
Weight generation scheme         WeightScheme... mBecke (2022)
Basis function cutoff            BFCut       ... 1.0000e-11
Integration weight cutoff        WCut        ... 1.0000e-14
Partially contracted basis set               ... on
Rotationally invariant grid construction     ... off
Angular grids for H and He will be reduced by one unit

Total number of grid points                  ...    10569
Total number of batches                      ...       87
Average number of points per batch           ...      121
Average number of grid points per atom       ...     1321
UseSFitting                                  ... on

GRIDX 3
-------
General Integration Accuracy     IntAcc      ... 4.338
Radial Grid Type                 RadialGrid  ... OptM3 with GC (2021)
Angular Grid (max. ang.)         AngularGrid ... 3 (Lebedev-194)
Angular grid pruning method      GridPruning ... 4 (adaptive)
Weight generation scheme         WeightScheme... mBecke (2022)
Basis function cutoff            BFCut       ... 1.0000e-11
Integration weight cutoff        WCut        ... 1.0000e-14
Partially contracted basis set               ... on
Rotationally invariant grid construction     ... off
Angular grids for H and He will be reduced by one unit

Total number of grid points                  ...    23344
Total number of batches                      ...      186
Average number of points per batch           ...      125
Average number of grid points per atom       ...     2918
UseSFitting                                  ... on
Initializing property integral containers    ... done (  0.0 sec)

SHARK setup successfully completed in   2.2 seconds

Maximum memory used throughout the entire STARTUP-calculation: 13.9 MB


           ************************************************************
           *        Program running with 4 parallel MPI-processes     *
           *              working on a common directory               *
           ************************************************************
-------------------------------------------------------------------------------
                                 ORCA GUESS
                   Start orbitals & Density for SCF / CASSCF
-------------------------------------------------------------------------------

------------
SCF SETTINGS
------------
Hamiltonian:
 Density Functional     Method          .... DFT(GTOs)
  Functional kind                       .... Exchange
  Functional name                       .... Re-regularized SCAN exchange by Furness et al
  Functional family                     .... MGGA
  Functional refs                              
    [ 0] J. W. Furness, A. D. Kaplan, J. Ning, J. P. Perdew, and J. Sun.,  J. Phys. Chem. Lett. 11, 8208-8215 (2020), doi: 10.1021/acs.jpclett.0c02405
    [ 1] J. W. Furness, A. D. Kaplan, J. Ning, J. P. Perdew, and J. Sun.,  J. Phys. Chem. Lett. 11, 9248-9248 (2020), doi: 10.1021/acs.jpclett.0c03077
  Functional external parameters        .... 6
    Parameter  0 _c1        =  6.670000e-01 : c1 parameter        
    Parameter  1 _c2        =  8.000000e-01 : c2 parameter        
    Parameter  2 _d         =  1.240000e+00 : d parameter         
    Parameter  3 _k1        =  6.500000e-02 : k1 parameter        
    Parameter  4 _eta       =  1.000000e-03 : eta parameter       
    Parameter  5 _dp2       =  3.610000e-01 : dp2 parameter       
  Functional kind                       .... Correlation
  Functional name                       .... Re-regularized SCAN correlation by Furness et al
  Functional family                     .... MGGA
  Functional refs                              
    [ 0] J. W. Furness, A. D. Kaplan, J. Ning, J. P. Perdew, and J. Sun.,  J. Phys. Chem. Lett. 11, 8208-8215 (2020), doi: 10.1021/acs.jpclett.0c02405
    [ 1] J. W. Furness, A. D. Kaplan, J. Ning, J. P. Perdew, and J. Sun.,  J. Phys. Chem. Lett. 11, 9248-9248 (2020), doi: 10.1021/acs.jpclett.0c03077
  Functional external parameters        .... 1
    Parameter  0 _eta       =  1.000000e-03 : Regularization parameter
 Gradients option       PostSCFGGA      .... off
 Hybrid DFT is turned on
   Fraction HF Exchange ScalHFX         ....  0.100000
   Scaling of DF-GGA-X  ScalDFX         ....  0.900000
   Scaling of DF-GGA-C  ScalDFC         ....  1.000000
   Scaling of DF-LDA-C  ScalLDAC        ....  1.000000
   Perturbative correction              ....  0.000000
   NL short-range parameter             .... 11.900000
 RI-approximation to the Coulomb term is turned on
   Number of AuxJ basis functions       .... 240
   RIJ-COSX (HFX calculated with COS-X)).... on


General Settings:
 Integral files         IntName         .... CS_PdOAc_006_sp_02
 Hartree-Fock type      HFTyp           .... RHF
 Total Charge           Charge          ....    0
 Multiplicity           Mult            ....    1
 Number of Electrons    NEL             ....   32
 Basis Dimension        Dim             ....  148
 Nuclear Repulsion      ENuc            ....    121.3996306132 Eh

Convergence Acceleration:
 AO-DIIS                CNVDIIS         .... on
   Start iteration      DIISMaxIt       ....     0
   Startup error        DIISStart       ....  0.200000
   # of expansion vecs  DIISMaxEq       ....     5
   Bias factor          DIISBfac        ....   1.050
   Max. coefficient     DIISMaxC        ....  10.000
 MO-DIIS                CNVKDIIS        .... off
 Trust-Rad. Augm. Hess. CNVTRAH         .... auto
   Auto Start mean grad. ratio tolernc. ....  1.125000
   Auto Start start iteration           ....    50
   Auto Start num. interpolation iter.  ....    10
   Max. Number of Micro iterations      ....    24
   Max. Number of Macro iterations      .... Maxiter - #DIIS iter
   Number of Davidson start vectors     ....     2
   Converg. threshold    (grad. norm)   ....   1.000e-05
   Grad. Scal. Fac. for Micro threshold ....   0.100
   Minimum threshold for Micro iter.    ....   1.000e-02
   NR start threshold (gradient norm)   ....   1.000e-04
   Initial trust radius                 ....   0.400
   Minimum AH scaling param. (alpha)    ....   1.000
   Maximum AH scaling param. (alpha)    .... 1000.000
   Quad. conv. algorithm                .... NR
   White noise on init. David. guess    .... on
   Maximum white noise                  ....   0.010
   Pseudo random numbers                .... off
   Inactive MOs                         .... canonical
   Orbital update algorithm             .... Taylor
   Preconditioner                       .... Diag
   Full preconditioner red. dimension   ....   250
 SOSCF                  CNVSOSCF        .... on
   Start iteration      SOSCFMaxIt      ....   150
   Startup grad/error   SOSCFStart      ....  0.001000
   Hessian update       SOSCFHessUp     .... L-BFGS
 Level Shifting         CNVShift        .... on
   Level shift para.    LevelShift      ....    0.2500
   Turn off err/grad.   ShiftErr        ....    0.0000
 Zerner damping         CNVZerner       .... off
 Static damping         CNVDamp         .... on
   Fraction old density DampFac         ....    0.8500
   Max. Damping (<1)    DampMax         ....    0.9800
   Min. Damping (>=0)   DampMin         ....    0.0000
   Turn off err/grad.   DampErr         ....    0.0300

SCF Procedure:
 Maximum # iterations   MaxIter         ....  1500
 SCF integral mode      SCFMode         .... Direct
   Integral package                     .... SHARK and LIBINT hybrid scheme
 Reset frequency        DirectResetFreq ....    20
 Integral Threshold     Thresh          ....  2.500e-11 Eh
 Primitive CutOff       TCut            ....  2.500e-12 Eh

Convergence Tolerance:
 Convergence Check Mode ConvCheckMode   .... Total+1el-Energy
 Convergence forced     ConvForced      .... 0
 Energy Change          TolE            ....  1.000e-08 Eh
 1-El. energy change                    ....  1.000e-05 Eh
 Orbital Gradient       TolG            ....  1.000e-05
 Orbital Rotation angle TolX            ....  1.000e-05
 DIIS Error             TolErr          ....  5.000e-07

------------------------------
INITIAL GUESS: MODEL POTENTIAL
------------------------------
Loading Hartree-Fock densities                     ... done
Calculating cut-offs                               ... done
Initializing the effective Hamiltonian             ... done
Setting up the integral package (SHARK)            ... done
Starting the Coulomb interaction                   ... done (   0.4 sec)
Making the grid                                    ... done (   0.1 sec)
Mapping shells                                     ... done
Starting the XC term evaluation                    ... done (   0.1 sec)
  promolecular density results
     # of electrons  =     31.999586836
     EX              =    -27.702549590
     EC              =     -1.056124571
     EX+EC           =    -28.758674161
Transforming the Hamiltonian                       ... done (   0.0 sec)
Diagonalizing the Hamiltonian                      ... done (   0.0 sec)
Back transforming the eigenvectors                 ... done (   0.0 sec)
Now organizing SCF variables                       ... done
                      ------------------
                      INITIAL GUESS DONE (   0.7 sec)
                      ------------------
             **** ENERGY FILE WAS UPDATED (CS_PdOAc_006_sp_02.en.tmp) ****
Finished Guess after   1.8 sec
Maximum memory used throughout the entire GUESS-calculation: 9.7 MB


           ************************************************************
           *        Program running with 4 parallel MPI-processes     *
           *              working on a common directory               *
           ************************************************************

-------------------------------------------------------------------------------------------
                                      ORCA LEAN-SCF
                              memory conserving SCF solver
-------------------------------------------------------------------------------------------

----------------------------------------D-I-I-S--------------------------------------------
Iteration    Energy (Eh)           Delta-E    RMSDP     MaxDP     DIISErr   Damp  Time(sec)
-------------------------------------------------------------------------------------------
               ***  Starting incremental Fock matrix formation  ***
    1    -228.8863316715022620     0.00e+00  1.19e-03  2.56e-02  2.74e-01  0.850   1.6
    2    -228.9344066537541380    -4.81e-02  1.26e-03  3.56e-02  1.90e-01  0.850   1.4
                               ***Turning on AO-DIIS***
    3    -228.9631075331893157    -2.87e-02  6.06e-04  1.28e-02  1.16e-01  0.850   1.3
    4    -228.9807134647893463    -1.76e-02  3.43e-04  6.23e-03  9.08e-02  0.850   1.4
    5    -228.9932055306912275    -1.25e-02  2.38e-04  4.08e-03  7.71e-02  0.850   1.5
    6    -229.0029975001835396    -9.79e-03  1.92e-04  3.69e-03  6.60e-02  0.850   1.4
    7    -229.0110268458731753    -8.03e-03  1.65e-04  3.48e-03  5.51e-02  0.850   1.6
    8    -229.0176678784479236    -6.64e-03  1.37e-04  2.61e-03  4.48e-02  0.850   1.5
    9    -229.0231193711227320    -5.45e-03  1.14e-04  2.00e-03  3.72e-02  0.850   1.8
   10    -229.0276198529316503    -4.50e-03  9.56e-05  1.69e-03  3.15e-02  0.850   1.3
   11    -229.0313627923441118    -3.74e-03  8.08e-05  1.52e-03  2.67e-02  0.850   1.3
   12    -229.0344918893315480    -3.13e-03  4.56e-04  8.84e-03  2.22e-02  0.000   2.2
   13    -229.0513036652861274    -1.68e-02  5.54e-05  1.48e-03  3.51e-03  0.000   1.9
   14    -229.0513155762403130    -1.19e-05  1.84e-05  3.61e-04  1.37e-03  0.000   1.3
                              *** Initializing SOSCF ***
---------------------------------------S-O-S-C-F--------------------------------------
Iteration    Energy (Eh)           Delta-E    RMSDP     MaxDP     MaxGrad    Time(sec)
--------------------------------------------------------------------------------------
   15    -229.0513209595845296    -5.38e-06  5.39e-06  8.47e-05  2.86e-04     1.4
               *** Restarting incremental Fock matrix formation ***
   16    -229.0513208494492119     1.10e-07  4.45e-06  8.72e-05  5.92e-05     1.5
   17    -229.0513207851220159     6.43e-08  3.18e-06  5.74e-05  1.14e-04     1.3
   18    -229.0513208739226343    -8.88e-08  8.49e-07  1.69e-05  1.14e-05     1.3
   19    -229.0513208714294251     2.49e-09  5.48e-07  9.32e-06  2.03e-05     1.4
                 **** Energy Check signals convergence ****

               *****************************************************
               *                     SUCCESS                       *
               *           SCF CONVERGED AFTER  19 CYCLES          *
               *****************************************************

Recomputing exchange energy using gridx3       ... done (    1.076 sec)
Old exchange energy                            :     -2.824494500 Eh
New exchange energy                            :     -2.824500902 Eh
Exchange energy change after final integration :     -0.000006402 Eh
Total energy after final integration           :   -229.051327273 Eh
             **** ENERGY FILE WAS UPDATED (CS_PdOAc_006_sp_02.en.tmp) ****

----------------
TOTAL SCF ENERGY
----------------

Total Energy       :       -229.05132727338847 Eh           -6232.80348 eV

Components:
Nuclear Repulsion  :        121.39963061316001 Eh            3303.45189 eV
Electronic Energy  :       -350.45095148458938 Eh           -9536.25520 eV
One Electron Energy:       -552.68521191496131 Eh          -15039.32920 eV
Two Electron Energy:        202.23426043037190 Eh            5503.07400 eV

Virial components:
Potential Energy   :       -457.12922843359536 Eh          -12439.11870 eV
Kinetic Energy     :        228.07790116020692 Eh            6206.31521 eV
Virial Ratio       :          2.00426795453759

DFT components:
N(Alpha)           :       16.000008745540 electrons
N(Beta)            :       16.000008745540 electrons
N(Total)           :       32.000017491081 electrons
E(X)               :      -25.544285183562 Eh       
E(C)               :       -1.042539428200 Eh       
E(XC)              :      -26.586824611762 Eh       

---------------
SCF CONVERGENCE
---------------

  Last Energy change         ...   -2.4932e-09  Tolerance :   1.0000e-08
  Last MAX-Density change    ...    9.3169e-06  Tolerance :   1.0000e-07
  Last RMS-Density change    ...    5.4842e-07  Tolerance :   5.0000e-09
  Last DIIS Error            ...    2.8579e-04  Tolerance :   5.0000e-07
  Last Orbital Gradient      ...    2.0281e-05  Tolerance :   1.0000e-05
  Last Orbital Rotation      ...    1.6492e-05  Tolerance :   1.0000e-05


----------------
ORBITAL ENERGIES
----------------

  NO   OCC          E(Eh)            E(eV) 
   0   2.0000     -19.166170      -521.5380 
   1   2.0000     -19.102981      -519.8185 
   2   2.0000     -10.290220      -280.0111 
   3   2.0000     -10.171412      -276.7782 
   4   2.0000      -1.118868       -30.4459 
   5   2.0000      -1.024808       -27.8865 
   6   2.0000      -0.759856       -20.6767 
   7   2.0000      -0.609942       -16.5974 
   8   2.0000      -0.487123       -13.2553 
   9   2.0000      -0.475375       -12.9356 
  10   2.0000      -0.466972       -12.7070 
  11   2.0000      -0.403947       -10.9920 
  12   2.0000      -0.389365       -10.5952 
  13   2.0000      -0.387262       -10.5379 
  14   2.0000      -0.320357        -8.7173 
  15   2.0000      -0.271921        -7.3993 
  16   0.0000      -0.007848        -0.2136 
  17   0.0000       0.045701         1.2436 
  18   0.0000       0.078289         2.1303 
  19   0.0000       0.126155         3.4328 
  20   0.0000       0.136947         3.7265 
  21   0.0000       0.153536         4.1779 
  22   0.0000       0.179468         4.8836 
  23   0.0000       0.219347         5.9687 
  24   0.0000       0.229896         6.2558 
  25   0.0000       0.255301         6.9471 
  26   0.0000       0.271933         7.3997 
*Only the first 10 virtual orbitals were printed.

                    ********************************
                    * MULLIKEN POPULATION ANALYSIS *
                    ********************************

-----------------------
MULLIKEN ATOMIC CHARGES
-----------------------
   0 O :   -0.393687
   1 C :    0.343367
   2 O :   -0.352853
   3 C :   -0.332066
   4 H :    0.133144
   5 H :    0.133137
   6 H :    0.137475
   7 H :    0.331483
Sum of atomic charges:   -0.0000000

--------------------------------
MULLIKEN REDUCED ORBITAL CHARGES
--------------------------------
  0 O s       :     3.785212  s :     3.785212
      pz      :     1.561855  p :     4.575180
      px      :     1.562389
      py      :     1.450936
      dz2     :     0.004020  d :     0.031553
      dxz     :     0.006097
      dyz     :     0.005816
      dx2y2   :     0.006515
      dxy     :     0.009105
      f0      :     0.000146  f :     0.001742
      f+1     :     0.000142
      f-1     :     0.000384
      f+2     :     0.000177
      f-2     :     0.000345
      f+3     :     0.000281
      f-3     :     0.000267

  1 C s       :     3.061229  s :     3.061229
      pz      :     0.815786  p :     2.305877
      px      :     0.707619
      py      :     0.782472
      dz2     :     0.052017  d :     0.264445
      dxz     :     0.050203
      dyz     :     0.033947
      dx2y2   :     0.058321
      dxy     :     0.069957
      f0      :     0.002419  f :     0.025081
      f+1     :     0.004957
      f-1     :     0.001300
      f+2     :     0.002550
      f-2     :     0.005350
      f+3     :     0.004418
      f-3     :     0.004088

  2 O s       :     3.835073  s :     3.835073
      pz      :     1.470030  p :     4.483890
      px      :     1.396565
      py      :     1.617296
      dz2     :     0.006267  d :     0.031845
      dxz     :     0.008850
      dyz     :     0.002488
      dx2y2   :     0.006545
      dxy     :     0.007695
      f0      :     0.000145  f :     0.002044
      f+1     :     0.000576
      f-1     :     0.000009
      f+2     :     0.000371
      f-2     :     0.000306
      f+3     :     0.000273
      f-3     :     0.000365

  3 C s       :     3.242203  s :     3.242203
      pz      :     0.987771  p :     3.050274
      px      :     1.067879
      py      :     0.994625
      dz2     :     0.009613  d :     0.036189
      dxz     :     0.005661
      dyz     :     0.007998
      dx2y2   :     0.003784
      dxy     :     0.009132
      f0      :     0.000286  f :     0.003400
      f+1     :     0.000142
      f-1     :     0.001082
      f+2     :     0.000316
      f-2     :     0.000802
      f+3     :     0.000097
      f-3     :     0.000675

  4 H s       :     0.843913  s :     0.843913
      pz      :     0.011211  p :     0.022944
      px      :     0.005358
      py      :     0.006375

  5 H s       :     0.843925  s :     0.843925
      pz      :     0.005312  p :     0.022938
      px      :     0.010151
      py      :     0.007476

  6 H s       :     0.839779  s :     0.839779
      pz      :     0.004722  p :     0.022746
      px      :     0.010161
      py      :     0.007863

  7 H s       :     0.624537  s :     0.624537
      pz      :     0.017233  p :     0.043980
      px      :     0.011161
      py      :     0.015586



                     *******************************
                     * LOEWDIN POPULATION ANALYSIS *
                     *******************************

----------------------
LOEWDIN ATOMIC CHARGES
----------------------
   0 O :    0.092086
   1 C :   -0.544921
   2 O :    0.093454
   3 C :   -0.262960
   4 H :    0.141683
   5 H :    0.141643
   6 H :    0.137543
   7 H :    0.201471

-------------------------------
LOEWDIN REDUCED ORBITAL CHARGES
-------------------------------
  0 O s       :     3.342100  s :     3.342100
      pz      :     1.492843  p :     4.490661
      px      :     1.579072
      py      :     1.418746
      dz2     :     0.008532  d :     0.070138
      dxz     :     0.009516
      dyz     :     0.016623
      dx2y2   :     0.015355
      dxy     :     0.020113
      f0      :     0.000419  f :     0.005015
      f+1     :     0.000621
      f-1     :     0.000590
      f+2     :     0.000301
      f-2     :     0.001072
      f+3     :     0.001076
      f-3     :     0.000935

  1 C s       :     2.768270  s :     2.768270
      pz      :     0.886770  p :     2.657220
      px      :     0.917692
      py      :     0.852758
      dz2     :     0.167038  d :     0.961755
      dxz     :     0.203832
      dyz     :     0.119740
      dx2y2   :     0.216975
      dxy     :     0.254169
      f0      :     0.015369  f :     0.157676
      f+1     :     0.031118
      f-1     :     0.007541
      f+2     :     0.014877
      f-2     :     0.031436
      f+3     :     0.028185
      f-3     :     0.029151

  2 O s       :     3.405233  s :     3.405233
      pz      :     1.440644  p :     4.426523
      px      :     1.490857
      py      :     1.495022
      dz2     :     0.009725  d :     0.068498
      dxz     :     0.023268
      dyz     :     0.004853
      dx2y2   :     0.017287
      dxy     :     0.013365
      f0      :     0.000584  f :     0.006293
      f+1     :     0.001336
      f-1     :     0.000024
      f+2     :     0.001562
      f-2     :     0.000836
      f+3     :     0.001036
      f-3     :     0.000914

  3 C s       :     2.844140  s :     2.844140
      pz      :     1.051774  p :     3.178636
      px      :     1.072501
      py      :     1.054361
      dz2     :     0.052101  d :     0.217018
      dxz     :     0.026011
      dyz     :     0.057302
      dx2y2   :     0.019134
      dxy     :     0.062469
      f0      :     0.002447  f :     0.023166
      f+1     :     0.003057
      f-1     :     0.004911
      f+2     :     0.004603
      f-2     :     0.003312
      f+3     :     0.001267
      f-3     :     0.003568

  4 H s       :     0.795940  s :     0.795940
      pz      :     0.029284  p :     0.062377
      px      :     0.014701
      py      :     0.018392

  5 H s       :     0.795990  s :     0.795990
      pz      :     0.014673  p :     0.062367
      px      :     0.028205
      py      :     0.019489

  6 H s       :     0.800493  s :     0.800493
      pz      :     0.012592  p :     0.061963
      px      :     0.028719
      py      :     0.020652

  7 H s       :     0.652066  s :     0.652066
      pz      :     0.061130  p :     0.146462
      px      :     0.036020
      py      :     0.049313



                      *****************************
                      * MAYER POPULATION ANALYSIS *
                      *****************************

  NA   - Mulliken gross atomic population
  ZA   - Total nuclear charge
  QA   - Mulliken gross atomic charge
  VA   - Mayer's total valence
  BVA  - Mayer's bonded valence
  FA   - Mayer's free valence

  ATOM       NA         ZA         QA         VA         BVA        FA
  0 O      8.3937     8.0000    -0.3937     2.0457     2.0457    -0.0000
  1 C      5.6566     6.0000     0.3434     4.2318     4.2318     0.0000
  2 O      8.3529     8.0000    -0.3529     2.1302     2.1302    -0.0000
  3 C      6.3321     6.0000    -0.3321     3.8220     3.8220     0.0000
  4 H      0.8669     1.0000     0.1331     0.9804     0.9804     0.0000
  5 H      0.8669     1.0000     0.1331     0.9803     0.9803    -0.0000
  6 H      0.8625     1.0000     0.1375     0.9866     0.9866     0.0000
  7 H      0.6685     1.0000     0.3315     0.9223     0.9223    -0.0000

  Mayer bond orders larger than 0.100000
B(  0-O ,  1-C ) :   1.1742 B(  0-O ,  7-H ) :   0.8574 B(  1-C ,  2-O ) :   2.0409 
B(  1-C ,  3-C ) :   0.9816 B(  3-C ,  4-H ) :   0.9466 B(  3-C ,  5-H ) :   0.9467 
B(  3-C ,  6-H ) :   0.9763 

-------
TIMINGS
-------

Total SCF time: 0 days 0 hours 0 min 31 sec 

Total time                  ....      31.464 sec
Sum of individual times     ....      29.634 sec  ( 94.2%)

SCF preparation             ....       0.606 sec  (  1.9%)
Fock matrix formation       ....      22.030 sec  ( 70.0%)
  Startup                   ....       1.014 sec  (  4.6% of F)
  Split-RI-J                ....       3.535 sec  ( 16.0% of F)
  Chain of spheres X        ....       8.752 sec  ( 39.7% of F)
  XC integration            ....       6.921 sec  ( 31.4% of F)
    XC Preparation          ....       0.000 sec  (  0.0% of XC)
    Basis function eval.    ....       0.882 sec  ( 12.7% of XC)
    Density eval.           ....       1.605 sec  ( 23.2% of XC)
    XC-Functional eval.     ....       0.736 sec  ( 10.6% of XC)
    XC-Potential eval.      ....       1.797 sec  ( 26.0% of XC)
Diagonalization             ....       0.000 sec  (  0.0%)
Density matrix formation    ....       2.188 sec  (  7.0%)
Total Energy calculation    ....       1.198 sec  (  3.8%)
Population analysis         ....       0.185 sec  (  0.6%)
Orbital Transformation      ....       0.149 sec  (  0.5%)
Orbital Orthonormalization  ....       0.000 sec  (  0.0%)
DIIS solution               ....       2.898 sec  (  9.2%)
SOSCF solution              ....       0.379 sec  (  1.2%)
Finished LeanSCF after  31.6 sec

Maximum memory used throughout the entire LEANSCF-calculation: 12.7 MB


-------------------------------------------------------------------------------
                          DFT DISPERSION CORRECTION                            
                                                                               
                              DFTD3 V3.1  Rev 1                                
                          USING Becke-Johnson damping                          
-------------------------------------------------------------------------------
The R2SCANh functional is recognized
Active option DFTDOPT                   ...         4   

molecular C6(AA) [au] = 530.235015 


            DFT-D V3
 parameters
 s6 scaling factor         :     1.0000 
 a1 scaling factor         :     0.4709 
 s8 scaling factor         :     1.1236 
 a2 scaling factor         :     5.9157 
 ad hoc parameters k1-k3   :    16.0000     1.3333    -4.0000 

 Edisp/kcal,au: -0.693054701279  -0.001104452851 
 E6   /kcal   :  -0.515009524 
 E8   /kcal   :  -0.178045177 
 % E8         :  25.689916983 

-------------------------   ----------------
Dispersion correction           -0.001104453
-------------------------   ----------------


-------------------------   --------------------
FINAL SINGLE POINT ENERGY      -229.052431726239
-------------------------   --------------------



           ************************************************************
           *        Program running with 4 parallel MPI-processes     *
           *              working on a common directory               *
           ************************************************************

------------------------------------------------------------------------------
                              ORCA PROPERTY CALCULATIONS
------------------------------------------------------------------------------

GBWName                                 ... CS_PdOAc_006_sp_02.gbw
Number of atoms                         ...      8
Number of basis functions               ...    148
Max core memory                         ...   3500 MB

Electric properties:
Dipole moment                           ... YES
Quadrupole moment                       ...  NO
Static polarizability (Dipole/Dipole)   ...  NO
Static polarizability (Dipole/Quad.)    ...  NO
Static polarizability (Quad./Quad.)     ...  NO
Static polarizability (Velocity)        ...  NO

Atomic electric properties:
Dipole moment                           ...  NO
Quadrupole moment                       ...  NO
Static polarizability                   ...  NO

Choice of electric origin               ... Center of mass
Position of electric origin             ...     1.241122    -1.472563     0.941331

General magnetic properties:
Magnetizability                         ...  NO

EPR properties:
g-Tensor (aka g-matrix)                 ...  NO
Zero-Field splitting spin-orbit         ...  NO
Zero-field splitting spin-spin          ...  NO
Hyperfine couplings                     ...  NO (   0 nuclei)
Quadrupole couplings                    ...  NO (   0 nuclei)
Contact density                         ...  NO (   0 nuclei)

NMR properties:
Chemical shifts                         ...  NO (   0 nuclei)
Spin-rotation constants                 ...  NO (   0 nuclei)
Spin-spin couplings                     ...  NO (   0 nuclei,    0 pairs)

Choice of magnetic origin               ... GIAO
Position of magnetic origin             ...     0.000000     0.000000     0.000000

Properties with geometric perturbations:
SCF Hessian                             ...  NO
IR spectrum                             ...  NO
VCD spectrum                            ...  NO
X-ray spectroscopy properties:
SCF XES/XAS/RIXS spectra                ...  NO


-------------
DIPOLE MOMENT
-------------

Method             : SCF
Type of density    : Electron Density
Multiplicity       :   1
Irrep              :   0
Energy             :  -229.0513272733884662 Eh
Relativity type    : 
Basis              : AO
                                X                 Y                 Z
Electronic contribution:      0.814675508       2.147999958      -2.417874081
Nuclear contribution   :     -1.425027740      -2.157446736       2.749355632
                        -----------------------------------------
Total Dipole Moment    :     -0.610352232      -0.009446778       0.331481551
                        -----------------------------------------
Magnitude (a.u.)       :      0.694621557
Magnitude (Debye)      :      1.765587685



--------------------
Rotational spectrum 
--------------------
 
Rotational constants in cm-1:             0.382156             0.316545             0.178972 
Rotational constants in MHz :         11456.738921          9489.779872          5365.458298 

Dipole components along the rotational axes: 
x,y,z [a.u.] :    -0.308385    -0.622407     0.002606 
x,y,z [Debye]:    -0.783852    -1.582034     0.006623 

 

Dipole moment calculation done in   0.1 sec 

Maximum memory used throughout the entire PROP-calculation: 6.7 MB

--------------------------------
SUGGESTED CITATIONS FOR THIS RUN
--------------------------------

Below you find a list of papers that are relevant to this ORCA run
We neither can nor want to force you to cite these papers, but we appreciate if you do
You receive ORCA, which is the product of decades of hard work by many enthusiastic individuals, for free
The only thing we kindly ask in return is that you cite our papers,
We deeply appreciate it, if you show your appreciation for ORCA by not just citing the generic ORCA reference.

Please note that relegating all ORCA citations to the supporting information does *not* help us.
SI sections are not indexed - citations you put there will not count into any citation statistics
But we need these citations in order to attract the funding resources that allow us to do what we are doing

Therefore, if you are a happy ORCA user, please consider citing a few of the papers listed below in the main body of your paper

In addition to the list printed below, the program has created the file CS_PdOAc_006_sp_02.bibtex that contains the list in bibtex format
You can import this file easily into all common literature databanks and citation aid programs


List of essential papers. We consider these as the minimum necessary citations

  1. Neese,F.
     Software update: the ORCA program system, version 5.0
     WIRES Comput. Molec. Sci., 2022 12(1)e1606
     doi.org/10.1002/wcms.1606

List of papers to cite with high priority. The work reported in these papers was absolutely
necessary for this run to complete.
Our perspective: the developers of density functionals and basis sets usually get cited in chemistry papers
Good! But without the algorithms to do something with them, the functionals or basis sets would not do anything.
Hence, in our opinion, the algorithm design and method developments papers are equally worthy of getting cited

  1. Neese,F.
     An improvement of the resolution of the identity approximation for the formation of the Coulomb matrix
     J. Comp. Chem., 2003 24(14)1740-1747
     doi.org/10.1002/jcc.10318
  2. Neese,F.; Wennmohs,F.; Hansen,A.; Becker,U.
     Efficient, approximate and parallel Hartree-Fock and hybrid DFT calculations. A 'chain-of-spheres' algorithm for the Hartree-Fock exchange
     Chem. Phys., 2009 356(1-3)98-109
     doi.org/10.1016/j.chemphys.2008.10.036
  3. Helmich-Paris,B.; de Souza,B.; Neese,F.; Izsák,R.
     An improved chain of spheres for exchange algorithm
     J. Chem. Phys., 2021 155 104109
     doi.org/doi: 10.1063/5.0058766.
  4. Neese,F.
     The SHARK Integral Generation and Digestion System
     J. Comp. Chem., 2022  1-16
     doi.org/10.1002/jcc.26942
  5. Lehtola,S.; Steigemann,C.; Oliveira,M.; Marques,M.
     Recent developments in Libxc - A comprehensive library of functionals for density functional theory
     Software X, 2018 7 
     doi.org/10.1016/j.softx.2017.11.002
  6. Grimme,S.; Antony,J.; Ehrlich,S.; Krieg,H.
     A consistent and accurate ab initio parametrization of density functional dispersion correction (DFT-D) for the 94 elements H-Pu
     J. Chem. Phys., 2010 132 154104-XXXX
     doi.org/10.1063/1.3382344
  7. Grimme,S.; Ehrlich,S.; Goerigk,L.
     Effect of the damping function in dispersion corrected density functional theory
     J. Comput. Chem., 2011 32(7)1456-1465
     doi.org/10.1002/jcc.21759
  8. Bursch,M.; Neugebauer,H.; Ehlert,S.; Grimme,S.
     Dispersion corrected r2SCAN based global hybrid functionals: r2SCANh, r2SCAN0, and r2SCAN50
     J. Phys. Chem., 2022 156(13)134105
     doi.org/10.1063/5.0086040

List of suggested additional citations. These are papers that are important in the 'surrounding' of 
of this run, or papers that preceded the highly important papers. If you like your results we are grateful for a citation.

  1. Izsak,R.; Neese,F.
     An overlap fitted chain of spheres exchange method
     J. Chem. Phys., 2011 135 144105
     doi.org/10.1063/1.3646921
  2. Izsak,R.; Hansen,A.; Neese,F.
     The resolution of identity and chain of spheres approximations for the LPNO-CCSD singles Fock term
     Molec. Phys., 2012 110 2413-2417
     doi.org/10.1080/00268976.2012.687466
  3. Neese,F.
     The ORCA program system
     WIRES Comput. Molec. Sci., 2012 2(1)73-78
     doi.org/10.1002/wcms.81
  4. Izsak,R.; Neese,F.; Klopper,W.
     Robust fitting techniques in the chain of spheres approximation to the Fock exchange: The role of the complementary space
     J. Chem. Phys., 2013 139 
     doi.org/10.1063/1.4819264
  5. Neese,F.
     Software update: the ORCA program system, version 4.0
     WIRES Comput. Molec. Sci., 2018 8(1)1-6
     doi.org/10.1002/wcms.1327
  6. Neese,F.; Wennmohs,F.; Becker,U.; Riplinger,C.
     The ORCA quantum chemistry program package
     J. Chem. Phys., 2020 152 Art. No. L224108
     doi.org/10.1063/5.0004608
  7. Wittmann,L.; Neugebauer,H.; Grimme,S.; Bursch,M.
     Dispersion-corrected r2SCAN based double-hybrid functionals
     J. Chem. Phys., 2023 159(22)224103
     doi.org/10.1063/5.0174988

List of optional additional citations

  1. Neese,F.
     Approximate second-order SCF convergence for spin unrestricted wavefunctions
     Chem. Phys. Lett., 2000 325(1-3)93-98
     doi.org/10.1016/s0009-2614(00)00662-x

Timings for individual modules:

Sum of individual times          ...       41.210 sec (=   0.687 min)
Startup calculation              ...        3.710 sec (=   0.062 min)   9.0 %
SCF iterations                   ...       35.843 sec (=   0.597 min)  87.0 %
Property calculations            ...        1.657 sec (=   0.028 min)   4.0 %
                             ****ORCA TERMINATED NORMALLY****
TOTAL RUN TIME: 0 days 0 hours 0 minutes 43 seconds 581 msec
