
                                 *****************
                                 * O   R   C   A *
                                 *****************

                                            #,                                       
                                            ###                                      
                                            ####                                     
                                            #####                                    
                                            ######                                   
                                           ########,                                 
                                     ,,################,,,,,                         
                               ,,#################################,,                 
                          ,,##########################################,,             
                       ,#########################################, ''#####,          
                    ,#############################################,,   '####,        
                  ,##################################################,,,,####,       
                ,###########''''           ''''###############################       
              ,#####''   ,,,,##########,,,,          '''####'''          '####       
            ,##' ,,,,###########################,,,                        '##       
           ' ,,###''''                  '''############,,,                           
         ,,##''                                '''############,,,,        ,,,,,,###''
      ,#''                                            '''#######################'''  
     '                                                          ''''####''''         
             ,#######,   #######,   ,#######,      ##                                
            ,#'     '#,  ##    ##  ,#'     '#,    #''#        ,####,   ,####,        
            ##       ##  ##   ,#'  ##            #'  '#       #'       #'  '#        
            ##       ##  #######   ##           ,######,      #####,   #    #        
            '#,     ,#'  ##    ##  '#,     ,#' ,#      #,     #,   #   #,  ,#        
             '#######'   ##     ##  '#######'  #'      '#     '####' # '####'        



                #########################################################
                #                        -***-                          #
                #          Department of theory and spectroscopy        #
                #                                                       #
                #                      Frank Neese                      #
                #                                                       #
                #     Directorship, Architecture, Infrastructure        #
                #                    SHARK, DRIVERS                     #
                #        Core code/Algorithms in most modules           #
                #                                                       #
                #        Max Planck Institute fuer Kohlenforschung      #
                #                Kaiser Wilhelm Platz 1                 #
                #                 D-45470 Muelheim/Ruhr                 #
                #                      Germany                          #
                #                                                       #
                #                  All rights reserved                  #
                #                        -***-                          #
                #########################################################


                         Program Version 6.0.0  -   RELEASE  -


 With contributions from (in alphabetic order):
   Daniel Aravena         : Magnetic Suceptibility
   Michael Atanasov       : Ab Initio Ligand Field Theory (pilot matlab implementation)
   Alexander A. Auer      : GIAO ZORA, VPT2 properties, NMR spectrum
   Ute Becker             : All parallelization in ORCA, NUMFREQ, NUMCALC
   Giovanni Bistoni       : ED, misc. LED, open-shell LED, HFLD
   Martin Brehm           : Molecular dynamics
   Dmytro Bykov           : pre 5.0 version of the SCF Hessian
   Marcos Casanova-Páez   : Triplet and SCS-CIS(D). UHF-(DLPNO)-IP/EA/STEOM-CCSD. UHF-CVS-IP/STEOM-CCSD
   Vijay G. Chilkuri      : MRCI spin determinant printing, contributions to CSF-ICE
   Pauline Colinet        : FMM embedding
   Dipayan Datta          : RHF DLPNO-CCSD density
   Achintya Kumar Dutta   : EOM-CC, STEOM-CC
   Nicolas Foglia         : Exact transition moments, OPA infrastructure, MCD improvements
   Dmitry Ganyushin       : Spin-Orbit,Spin-Spin,Magnetic field MRCI
   Miquel Garcia          : C-PCM and meta-GGA Hessian, CCSD/C-PCM, Gaussian charge scheme
   Tiago L. C. Gouveia    : GS-ROHF, GS-ROCIS
   Yang Guo               : DLPNO-NEVPT2, F12-NEVPT2, CIM, IAO-localization
   Andreas Hansen         : Spin unrestricted coupled pair/coupled cluster methods
   Ingolf Harden          : AUTO-CI MPn and infrastructure 
   Benjamin Helmich-Paris : MC-RPA, TRAH-(SCF,CASSCF), AVAS, COSX integrals, SCF dyn. polar.
   Lee Huntington         : MR-EOM, pCC
   Robert Izsak           : Overlap fitted RIJCOSX, COSX-SCS-MP3, EOM
   Riya Kayal             : Wick's Theorem for AUTO-CI, AUTO-CI UHF-CCSDT
   Emily Kempfer          : AUTO-CI, RHF CISDT and CCSDT
   Christian Kollmar      : KDIIS, OOCD, Brueckner-CCSD(T), CCSD density, CASPT2, CASPT2-K, improved NEVPT2
   Axel Koslowski         : Symmetry handling
   Simone Kossmann        : Meta GGA functionals, TD-DFT gradient, OOMP2, (MP2 Hessian; deprecated post 5.0)
   Lucas Lang             : DCDCAS
   Marvin Lechner         : AUTO-CI (C++ implementation), FIC-MRCC
   Spencer Leger          : CASSCF response
   Dagmar Lenk            : GEPOL surface, SMD, ORCA-2-JSON
   Dimitrios Liakos       : Extrapolation schemes; Compound Job, initial MDCI parallelization
   Dimitrios Manganas     : Further ROCIS development; embedding schemes. LFT, Crystal Embedding
   Dimitrios Pantazis     : SARC Basis sets
   Anastasios Papadopoulos: AUTO-CI, single reference methods and gradients
   Taras Petrenko         : pre 6.0 DFT Hessian and TD-DFT gradient, (ASA, deprecated), ECA, 1-Electron XAS/XES, NRVS
   Peter Pinski           : DLPNO-MP2, DLPNO-MP2 Gradient
   Christoph Reimann      : Effective Core Potentials
   Marius Retegan         : Local ZFS, SOC
   Christoph Riplinger    : Optimizer, TS searches, QM/MM, DLPNO-CCSD(T), (RO)-DLPNO pert. Triples
   Michael Roemelt        : Original ROCIS implementation
   Masaaki Saitow         : Open-shell DLPNO-CCSD energy and density
   Barbara Sandhoefer     : DKH picture change effects
   Kantharuban Sivalingam : CASSCF convergence/infrastructure, NEVPT2 and variants, FIC-MRCI
   Bernardo de Souza      : ESD, SOC TD-DFT
   Georgi Stoychev        : AutoAux, RI-MP2 NMR, DLPNO-MP2 response, X2C
   Van Anh Tran           : RI-MP2 g-tensors
   Willem Van den Heuvel  : Paramagnetic NMR
   Zikuan Wang            : NOTCH, Electric field optimization 
   Frank Wennmohs         : Technical directorship and infrastructure
   Hang Xu                : AUTO-CI-Response properties 


 We gratefully acknowledge several colleagues who have allowed us to
 interface, adapt or use parts of their codes:
   Stefan Grimme, W. Hujo, H. Kruse, P. Pracht,  : VdW corrections, initial TS optimization,
                  C. Bannwarth, S. Ehlert,         DFT functionals, gCP, sTDA/sTD-DF
                  L. Wittmann, M. Mueller
   Ed Valeev, F. Pavosevic, A. Kumar             : LibInt (2-el integral package), F12 methods
   Garnet Chan, S. Sharma, J. Yang, R. Olivares  : DMRG
   Ulf Ekstrom                                   : XCFun DFT Library
   Mihaly Kallay                                 : mrcc  (arbitrary order and MRCC methods)
   Frank Weinhold                                : gennbo (NPA and NBO analysis)
   Simon Mueller                                 : openCOSMO-RS
   Christopher J. Cramer and Donald G. Truhlar   : smd solvation model
   Lars Goerigk                                  : TD-DFT with DH, B97 family of functionals
   V. Asgeirsson, H. Jonsson                     : NEB implementation
   FAccTs GmbH                                   : IRC, NEB, NEB-TS, DLPNO-Multilevel, CI-OPT
                                                   MM, QMMM, 2- and 3-layer-ONIOM, Crystal-QMMM,
                                                   LR-CPCM, SF, NACMEs, symmetry and pop. for TD-DFT,
                                                   nearIR, NL-DFT gradient (VV10), updates on ESD,
                                                   ML-optimized integration grids, MBIS, APM,
                                                   GOAT, DOCKER, SOLVATOR, interface openCOSMO-RS
   S Lehtola, MJT Oliveira, MAL Marques          : LibXC Library
   Liviu Ungur et al                             : ANISO software


 Your calculation uses the libint2 library for the computation of 2-el integrals
 For citations please refer to: http://libint.valeyev.net

 Your ORCA version has been built with support for libXC version: 6.2.2
 For citations please refer to: https://libxc.gitlab.io

 This ORCA versions uses:
   CBLAS   interface :  Fast vector & matrix operations
   LAPACKE interface :  Fast linear algebra routines
   SCALAPACK package :  Parallel linear algebra routines
   Shared memory     :  Shared parallel matrices
   BLAS/LAPACK       :  OpenBLAS 0.3.27  USE64BITINT DYNAMIC_ARCH NO_AFFINITY Sandybridge SINGLE_THREADED
        Core in use  :  Sandybridge
   Copyright (c) 2011-2014, The OpenBLAS Project


NOTE: MaxCore=3500 MB was set to SCF,MP2,MDCI,CIPSI,MRCI and CIS
      => If you want to overwrite this, your respective input block should be placed after the MaxCore statement
Your calculation utilizes the atom-pairwise dispersion correction
with the Becke-Johnson damping scheme (D3BJ)


Warning: RI is on but no J-basis has been assigned. Assigning Def2/J (nothing to worry about!)
================================================================================

----- Orbital basis set information -----
Your calculation utilizes the basis: def2-SV(P)
   F. Weigend and R. Ahlrichs, Phys. Chem. Chem. Phys. 7, 3297 (2005).

----- AuxJ basis set information -----
Your calculation utilizes the auxiliary basis: def2/J
   F. Weigend, Phys. Chem. Chem. Phys. 8, 1057 (2006).

================================================================================
                                        WARNINGS
                       Please study these warnings very carefully!
================================================================================


WARNING: your system is open-shell and RHF/RKS was chosen
  ===> : WILL SWITCH to UHF/UKS


WARNING: Geometry Optimization
  ===> : Switching off AutoStart
         For restart on a previous wavefunction, please use MOREAD

================================================================================
                                       INPUT FILE
================================================================================
NAME = CS_PdOAc_007_opt_01.inp
|  1> !PBE0 def2-SV(p) opt d3 TightSCF SlowConv RIJCOSX defgrid2
|  2> 
|  3> %pal
|  4> nprocs 4
|  5> end
|  6> 
|  7> %scf
|  8> MaxIter 1500
|  9> end
| 10> 
| 11> %maxcore 3500
| 12> 
| 13>  
| 14> 
| 15> * xyz 0 3
| 16> 8        0.000000000      0.000000000      1.480000000
| 17> 8        0.000000000      0.000000000      0.000000000
| 18> *
| 19> 
| 20>                          ****END OF INPUT****
================================================================================

                       *****************************
                       * Geometry Optimization Run *
                       *****************************

Geometry optimization settings:
Update method            Update   .... BFGS
Choice of coordinates    CoordSys .... (2022) Redundant Internals
Initial Hessian          InHess   .... Almloef's Model
Max. no of cycles        MaxIter  .... 50

Convergence Tolerances:
Energy Change            TolE     ....  5.0000e-06 Eh
Max. Gradient            TolMAXG  ....  3.0000e-04 Eh/bohr
RMS Gradient             TolRMSG  ....  1.0000e-04 Eh/bohr
Max. Displacement        TolMAXD  ....  4.0000e-03 bohr
RMS Displacement         TolRMSD  ....  2.0000e-03 bohr
Strict Convergence                .... False

------------------------------------------------------------------------------
                        ORCA OPTIMIZATION COORDINATE SETUP
------------------------------------------------------------------------------

The optimization will be done in redundant internal coordinates (2022)
Making redundant internal coordinates   ...  (2022 redundants) done
Evaluating the initial hessian          ...  (Almloef) done
Evaluating the coordinates              ...  done
Calculating the B-matrix                .... done
Calculating the G-matrix                .... done
Diagonalizing the G-matrix              .... done
The first mode is                       ....    0
The number of degrees of freedom        ....    1

    -----------------------------------------------------------------
                    Redundant Internal Coordinates


    -----------------------------------------------------------------
         Definition                    Initial Value    Approx d2E/dq
    -----------------------------------------------------------------
      1. B(O   1,O   0)                  1.4800         0.360100   
    -----------------------------------------------------------------

Number of atoms                         .... 2
Number of degrees of freedom            .... 1


         *************************************************************
         *                GEOMETRY OPTIMIZATION CYCLE   1            *
         *************************************************************
---------------------------------
CARTESIAN COORDINATES (ANGSTROEM)
---------------------------------
  O      0.000000    0.000000    1.480000
  O      0.000000    0.000000    0.000000

----------------------------
CARTESIAN COORDINATES (A.U.)
----------------------------
  NO LB      ZA    FRAG     MASS         X           Y           Z
   0 O     8.0000    0    15.999    0.000000    0.000000    2.796795
   1 O     8.0000    0    15.999    0.000000    0.000000    0.000000

--------------------------------
INTERNAL COORDINATES (ANGSTROEM)
--------------------------------
 O      0   0   0     0.000000000000     0.00000000     0.00000000
 O      1   0   0     1.480000000000     0.00000000     0.00000000

---------------------------
INTERNAL COORDINATES (A.U.)
---------------------------
 O      0   0   0     0.000000000000     0.00000000     0.00000000
 O      1   0   0     2.796794678203     0.00000000     0.00000000

---------------------
BASIS SET INFORMATION
---------------------
There are 1 groups of distinct atoms

 Group   1 Type O   : 7s4p1d contracted to 3s2p1d pattern {511/31/1}

Atom   0O    basis set group =>   1
Atom   1O    basis set group =>   1
---------------------------------
AUXILIARY/J BASIS SET INFORMATION
---------------------------------
There are 1 groups of distinct atoms

 Group   1 Type O   : 12s5p4d2f1g contracted to 6s4p3d1f1g pattern {711111/2111/211/2/1}

Atom   0O    basis set group =>   1
Atom   1O    basis set group =>   1


           ************************************************************
           *        Program running with 4 parallel MPI-processes     *
           *              working on a common directory               *
           ************************************************************
------------------------------------------------------------------------------
                             ORCA STARTUP CALCULATIONS
                           -- RI-GTO INTEGRALS CHOSEN --
------------------------------------------------------------------------------
------------------------------------------------------------------------------
                   ___                                                        
                  /   \      - P O W E R E D   B Y -                         
                 /     \                                                     
                 |  |  |   _    _      __       _____    __    __             
                 |  |  |  | |  | |    /  \     |  _  \  |  |  /  |          
                  \  \/   | |  | |   /    \    | | | |  |  | /  /          
                 / \  \   | |__| |  /  /\  \   | |_| |  |  |/  /          
                |  |  |   |  __  | /  /__\  \  |    /   |      \           
                |  |  |   | |  | | |   __   |  |    \   |  |\   \          
                \     /   | |  | | |  |  |  |  | |\  \  |  | \   \       
                 \___/    |_|  |_| |__|  |__|  |_| \__\ |__|  \__/        
                                                                              
                      - O R C A' S   B I G   F R I E N D -                    
                                      &                                       
                       - I N T E G R A L  F E E D E R -                       
                                                                              
 v1 FN, 2020, v2 2021, v3 2022-2024                                           
------------------------------------------------------------------------------


----------------------
SHARK INTEGRAL PACKAGE
----------------------

Number of atoms                             ...      2
Number of basis functions                   ...     28
Number of shells                            ...     12
Maximum angular momentum                    ...      2
Integral batch strategy                     ... SHARK/LIBINT Hybrid
RI-J (if used) integral strategy            ... SPLIT-RIJ (Revised 2003 algorithm where possible)
Printlevel                                  ...      1
Contraction scheme used                     ... SEGMENTED contraction
Prescreening option                         ... SCHWARTZ
   Thresh                                   ... 2.500e-11
   Tcut                                     ... 2.500e-12
   Tpresel                                  ... 2.500e-12 
Coulomb Range Separation                    ... NOT USED
Exchange Range Separation                   ... NOT USED
Multipole approximations                    ... NOT USED
Finite Nucleus Model                        ... NOT USED
CABS basis                                  ... NOT available
Auxiliary Coulomb fitting basis             ... AVAILABLE
   # of basis functions in Aux-J            ...     98
   # of shells in Aux-J                     ...     30
   Maximum angular momentum in Aux-J        ...      4
Auxiliary J/K fitting basis                 ... NOT available
Auxiliary Correlation fitting basis         ... NOT available
Auxiliary 'external' fitting basis          ... NOT available

Checking pre-screening integrals            ... done (  0.1 sec) Dimension = 12
Check shell pair data                       ... done (  0.0 sec)
Shell pair information
Shell pair cut-off parameter TPreSel        ...   2.5e-12
Total number of shell pairs                 ...        78
Shell pairs after pre-screening             ...        77
Total number of primitive shell pairs       ...       326
Primitive shell pairs kept                  ...       290
          la=0 lb=0:     20 shell pairs
          la=1 lb=0:     24 shell pairs
          la=1 lb=1:     10 shell pairs
          la=2 lb=0:     12 shell pairs
          la=2 lb=1:      8 shell pairs
          la=2 lb=2:      3 shell pairs

Calculating one electron integrals          ... done (  0.0 sec)
Calculating RI/J V-Matrix + Cholesky decomp.... done (  0.0 sec)
Calculating Nuclear repulsion               ... done (  0.0 sec) ENN=     22.883338737297 Eh

Diagonalization of the overlap matrix:
Smallest eigenvalue                        ... 3.792e-02
Time for diagonalization                   ...    0.000 sec
Threshold for overlap eigenvalues          ... 1.000e-07
Number of eigenvalues below threshold      ... 0
Time for construction of square roots      ...    0.021 sec
Total time needed                          ...    0.066 sec

-------------------
DFT GRID GENERATION
-------------------

General Integration Accuracy     IntAcc      ... 4.388
Radial Grid Type                 RadialGrid  ... OptM3 with GC (2021)
Angular Grid (max. ang.)         AngularGrid ... 4 (Lebedev-302)
Angular grid pruning method      GridPruning ... 4 (adaptive)
Weight generation scheme         WeightScheme... mBecke (2022)
Basis function cutoff            BFCut       ... 1.0000e-11
Integration weight cutoff        WCut        ... 1.0000e-14
Partially contracted basis set               ... off
Rotationally invariant grid construction     ... off
Angular grids for H and He will be reduced by one unit

Total number of grid points                  ...    12262
Total number of batches                      ...      192
Average number of points per batch           ...       63
Average number of grid points per atom       ...     6131

--------------------
COSX GRID GENERATION
--------------------

GRIDX 1
-------
General Integration Accuracy     IntAcc      ... 3.816
Radial Grid Type                 RadialGrid  ... OptM3 with GC (2021)
Angular Grid (max. ang.)         AngularGrid ... 1 (Lebedev-50)
Angular grid pruning method      GridPruning ... 4 (adaptive)
Weight generation scheme         WeightScheme... mBecke (2022)
Basis function cutoff            BFCut       ... 1.0000e-11
Integration weight cutoff        WCut        ... 1.0000e-14
Partially contracted basis set               ... on
Rotationally invariant grid construction     ... off
Angular grids for H and He will be reduced by one unit

Total number of grid points                  ...     1536
Total number of batches                      ...       14
Average number of points per batch           ...      109
Average number of grid points per atom       ...      768
UseSFitting                                  ... on

GRIDX 2
-------
General Integration Accuracy     IntAcc      ... 4.020
Radial Grid Type                 RadialGrid  ... OptM3 with GC (2021)
Angular Grid (max. ang.)         AngularGrid ... 2 (Lebedev-110)
Angular grid pruning method      GridPruning ... 4 (adaptive)
Weight generation scheme         WeightScheme... mBecke (2022)
Basis function cutoff            BFCut       ... 1.0000e-11
Integration weight cutoff        WCut        ... 1.0000e-14
Partially contracted basis set               ... on
Rotationally invariant grid construction     ... off
Angular grids for H and He will be reduced by one unit

Total number of grid points                  ...     3766
Total number of batches                      ...       30
Average number of points per batch           ...      125
Average number of grid points per atom       ...     1883
UseSFitting                                  ... on

GRIDX 3
-------
General Integration Accuracy     IntAcc      ... 4.338
Radial Grid Type                 RadialGrid  ... OptM3 with GC (2021)
Angular Grid (max. ang.)         AngularGrid ... 3 (Lebedev-194)
Angular grid pruning method      GridPruning ... 4 (adaptive)
Weight generation scheme         WeightScheme... mBecke (2022)
Basis function cutoff            BFCut       ... 1.0000e-11
Integration weight cutoff        WCut        ... 1.0000e-14
Partially contracted basis set               ... on
Rotationally invariant grid construction     ... off
Angular grids for H and He will be reduced by one unit

Total number of grid points                  ...     8426
Total number of batches                      ...       66
Average number of points per batch           ...      127
Average number of grid points per atom       ...     4213
UseSFitting                                  ... on
Initializing property integral containers    ... done (  0.1 sec)

SHARK setup successfully completed in   1.3 seconds

Maximum memory used throughout the entire STARTUP-calculation: 8.7 MB


           ************************************************************
           *        Program running with 4 parallel MPI-processes     *
           *              working on a common directory               *
           ************************************************************
-------------------------------------------------------------------------------
                                 ORCA GUESS
                   Start orbitals & Density for SCF / CASSCF
-------------------------------------------------------------------------------

------------
SCF SETTINGS
------------
Hamiltonian:
 Density Functional     Method          .... DFT(GTOs)
 Exchange Functional    Exchange        .... PBE
   PBE kappa parameter   XKappa         ....  0.804000
   PBE mue parameter    XMuePBE         ....  0.219520
 Correlation Functional Correlation     .... PBE
   PBE beta parameter  CBetaPBE         ....  0.066725
 LDA part of GGA corr.  LDAOpt          .... PW91-LDA
 Gradients option       PostSCFGGA      .... off
 Hybrid DFT is turned on
   Fraction HF Exchange ScalHFX         ....  0.250000
   Scaling of DF-GGA-X  ScalDFX         ....  0.750000
   Scaling of DF-GGA-C  ScalDFC         ....  1.000000
   Scaling of DF-LDA-C  ScalLDAC        ....  1.000000
   Perturbative correction              ....  0.000000
   NL short-range parameter             ....  6.900000
 RI-approximation to the Coulomb term is turned on
   Number of AuxJ basis functions       .... 98
   RIJ-COSX (HFX calculated with COS-X)).... on


General Settings:
 Integral files         IntName         .... CS_PdOAc_007_opt_01
 Hartree-Fock type      HFTyp           .... UHF
 Total Charge           Charge          ....    0
 Multiplicity           Mult            ....    3
 Number of Electrons    NEL             ....   16
 Basis Dimension        Dim             ....   28
 Nuclear Repulsion      ENuc            ....     22.8833387373 Eh

Convergence Acceleration:
 AO-DIIS                CNVDIIS         .... on
   Start iteration      DIISMaxIt       ....     0
   Startup error        DIISStart       ....  0.200000
   # of expansion vecs  DIISMaxEq       ....     5
   Bias factor          DIISBfac        ....   1.050
   Max. coefficient     DIISMaxC        ....  10.000
 MO-DIIS                CNVKDIIS        .... off
 Trust-Rad. Augm. Hess. CNVTRAH         .... auto
   Auto Start mean grad. ratio tolernc. ....  1.125000
   Auto Start start iteration           ....    50
   Auto Start num. interpolation iter.  ....    10
   Max. Number of Micro iterations      ....    24
   Max. Number of Macro iterations      .... Maxiter - #DIIS iter
   Number of Davidson start vectors     ....     2
   Converg. threshold    (grad. norm)   ....   1.000e-05
   Grad. Scal. Fac. for Micro threshold ....   0.100
   Minimum threshold for Micro iter.    ....   1.000e-02
   NR start threshold (gradient norm)   ....   1.000e-04
   Initial trust radius                 ....   0.400
   Minimum AH scaling param. (alpha)    ....   1.000
   Maximum AH scaling param. (alpha)    .... 1000.000
   Quad. conv. algorithm                .... NR
   White noise on init. David. guess    .... on
   Maximum white noise                  ....   0.010
   Pseudo random numbers                .... off
   Inactive MOs                         .... canonical
   Orbital update algorithm             .... Taylor
   Preconditioner                       .... Diag
   Full preconditioner red. dimension   ....   250
 SOSCF                  CNVSOSCF        .... on
   Start iteration      SOSCFMaxIt      ....   150
   Startup grad/error   SOSCFStart      ....  0.001000
   Hessian update       SOSCFHessUp     .... L-BFGS
 Level Shifting         CNVShift        .... on
   Level shift para.    LevelShift      ....    0.2500
   Turn off err/grad.   ShiftErr        ....    0.0000
 Zerner damping         CNVZerner       .... off
 Static damping         CNVDamp         .... on
   Fraction old density DampFac         ....    0.8500
   Max. Damping (<1)    DampMax         ....    0.9800
   Min. Damping (>=0)   DampMin         ....    0.0000
   Turn off err/grad.   DampErr         ....    0.0300

SCF Procedure:
 Maximum # iterations   MaxIter         ....  1500
 SCF integral mode      SCFMode         .... Direct
   Integral package                     .... SHARK and LIBINT hybrid scheme
 Reset frequency        DirectResetFreq ....    20
 Integral Threshold     Thresh          ....  2.500e-11 Eh
 Primitive CutOff       TCut            ....  2.500e-12 Eh

Convergence Tolerance:
 Convergence Check Mode ConvCheckMode   .... Total+1el-Energy
 Convergence forced     ConvForced      .... 0
 Energy Change          TolE            ....  1.000e-08 Eh
 1-El. energy change                    ....  1.000e-05 Eh
 Orbital Gradient       TolG            ....  1.000e-05
 Orbital Rotation angle TolX            ....  1.000e-05
 DIIS Error             TolErr          ....  5.000e-07

------------------------------
INITIAL GUESS: MODEL POTENTIAL
------------------------------
Loading Hartree-Fock densities                     ... done
Calculating cut-offs                               ... done
Initializing the effective Hamiltonian             ... done
Setting up the integral package (SHARK)            ... done
Starting the Coulomb interaction                   ... done (   0.2 sec)
Making the grid                                    ... done (   0.1 sec)
Mapping shells                                     ... done
Starting the XC term evaluation                    ... done (   0.0 sec)
  promolecular density results
     # of electrons  =     15.999959752
     EX              =    -16.111729147
     EC              =     -0.517243270
     EX+EC           =    -16.628972417
Transforming the Hamiltonian                       ... done (   0.1 sec)
Diagonalizing the Hamiltonian                      ... done (   0.0 sec)
Back transforming the eigenvectors                 ... done (   0.1 sec)
Now organizing SCF variables                       ... done
                      ------------------
                      INITIAL GUESS DONE (   1.3 sec)
                      ------------------
             **** ENERGY FILE WAS UPDATED (CS_PdOAc_007_opt_01.en.tmp) ****
Finished Guess after   2.7 sec
Maximum memory used throughout the entire GUESS-calculation: 5.4 MB


           ************************************************************
           *        Program running with 4 parallel MPI-processes     *
           *              working on a common directory               *
           ************************************************************

-------------------------------------------------------------------------------------------
                                      ORCA LEAN-SCF
                              memory conserving SCF solver
-------------------------------------------------------------------------------------------

----------------------------------------D-I-I-S--------------------------------------------
Iteration    Energy (Eh)           Delta-E    RMSDP     MaxDP     DIISErr   Damp  Time(sec)
-------------------------------------------------------------------------------------------
               ***  Starting incremental Fock matrix formation  ***
    1    -149.9670337487044094     0.00e+00  4.44e-04  3.23e-03  3.53e-02  0.850   5.1
    2    -149.9684063587312721    -1.37e-03  4.47e-04  3.19e-03  2.96e-02  0.850   6.9
                               ***Turning on AO-DIIS***
    3    -149.9695597162100569    -1.15e-03  3.98e-04  2.79e-03  2.45e-02  0.850   3.7
    4    -149.9705132857880869    -9.54e-04  2.39e-03  1.68e-02  2.07e-02  0.000   4.5
    5    -149.9761667599156851    -5.65e-03  2.92e-04  2.11e-03  2.11e-03  0.000   4.8
                              *** Initializing SOSCF ***
---------------------------------------S-O-S-C-F--------------------------------------
Iteration    Energy (Eh)           Delta-E    RMSDP     MaxDP     MaxGrad    Time(sec)
--------------------------------------------------------------------------------------
    6    -149.9762166683709665    -4.99e-05  1.15e-04  1.15e-03  5.80e-04     5.0
               *** Restarting incremental Fock matrix formation ***
    7    -149.9762172372541329    -5.69e-07  3.77e-05  3.05e-04  3.12e-04     3.6
    8    -149.9762177738124080    -5.37e-07  1.59e-05  1.83e-04  1.70e-04     3.5
    9    -149.9762178625310867    -8.87e-08  2.35e-06  2.11e-05  3.08e-05     4.9
   10    -149.9762178655151104    -2.98e-09  2.24e-07  2.10e-06  3.24e-06     4.6
                 **** Energy Check signals convergence ****

               *****************************************************
               *                     SUCCESS                       *
               *           SCF CONVERGED AFTER  10 CYCLES          *
               *****************************************************

Recomputing exchange energy using gridx3       ... done (    0.286 sec)
Old exchange energy                            :     -4.014776427 Eh
New exchange energy                            :     -4.014788671 Eh
Exchange energy change after final integration :     -0.000012243 Eh
Total energy after final integration           :   -149.976230109 Eh
             **** ENERGY FILE WAS UPDATED (CS_PdOAc_007_opt_01.en.tmp) ****

----------------
TOTAL SCF ENERGY
----------------

Total Energy       :       -149.97623010866332 Eh           -4081.06070 eV

Components:
Nuclear Repulsion  :         22.88333873729730 Eh             622.68730 eV
Electronic Energy  :       -172.85955660281240 Eh           -4703.74767 eV
One Electron Energy:       -251.56380969875005 Eh           -6845.39928 eV
Two Electron Energy:         78.70425309593764 Eh            2141.65161 eV

Virial components:
Potential Energy   :       -298.88502712465220 Eh           -8133.07507 eV
Kinetic Energy     :        148.90879701598885 Eh            4052.01437 eV
Virial Ratio       :          2.00716836825000

DFT components:
N(Alpha)           :        9.000001513300 electrons
N(Beta)            :        7.000000662549 electrons
N(Total)           :       16.000002175849 electrons
E(X)               :      -12.144220476645 Eh       
E(C)               :       -0.515416990706 Eh       
E(XC)              :      -12.659637467351 Eh       

---------------
SCF CONVERGENCE
---------------

  Last Energy change         ...    2.9840e-09  Tolerance :   1.0000e-08
  Last MAX-Density change    ...    2.1047e-06  Tolerance :   1.0000e-07
  Last RMS-Density change    ...    2.2390e-07  Tolerance :   5.0000e-09
  Last DIIS Error            ...    5.7974e-04  Tolerance :   5.0000e-07
  Last Orbital Gradient      ...    3.2405e-06  Tolerance :   1.0000e-05
  Last Orbital Rotation      ...    2.6240e-06  Tolerance :   1.0000e-05


----------------------
UHF SPIN CONTAMINATION
----------------------

Warning: in a DFT calculation there is little theoretical justification to 
         calculate <S**2> as in Hartree-Fock theory. We will do it anyways
         but you should keep in mind that the values have only limited relevance

Expectation value of <S**2>     :     2.008626
Ideal value S*(S+1) for S=1.0   :     2.000000
Deviation                       :     0.008626

----------------
ORBITAL ENERGIES
----------------
                 SPIN UP ORBITALS
  NO   OCC          E(Eh)            E(eV) 
   0   1.0000     -19.389092      -527.6040 
   1   1.0000     -19.388948      -527.6001 
   2   1.0000      -1.166427       -31.7401 
   3   1.0000      -0.917241       -24.9594 
   4   1.0000      -0.523816       -14.2537 
   5   1.0000      -0.518085       -14.0978 
   6   1.0000      -0.518085       -14.0978 
   7   1.0000      -0.388085       -10.5603 
   8   1.0000      -0.388085       -10.5603 
   9   0.0000      -0.046205        -1.2573 
  10   0.0000       0.744712        20.2647 
  11   0.0000       0.810973        22.0677 
  12   0.0000       0.811122        22.0717 
  13   0.0000       0.811122        22.0717 
  14   0.0000       0.945399        25.7256 
  15   0.0000       0.945399        25.7256 
  16   0.0000       1.058230        28.7959 
  17   0.0000       1.162133        31.6233 
  18   0.0000       2.247538        61.1586 
  19   0.0000       2.247538        61.1586 

                 SPIN DOWN ORBITALS
  NO   OCC          E(Eh)            E(eV) 
   0   1.0000     -19.357653      -526.7485 
   1   1.0000     -19.357605      -526.7472 
   2   1.0000      -1.096118       -29.8269 
   3   1.0000      -0.822196       -22.3731 
   4   1.0000      -0.490726       -13.3533 
   5   1.0000      -0.397298       -10.8110 
   6   1.0000      -0.397298       -10.8110 
   7   0.0000      -0.170428        -4.6376 
   8   0.0000      -0.170428        -4.6376 
   9   0.0000      -0.004848        -0.1319 
  10   0.0000       0.778154        21.1747 
  11   0.0000       0.835597        22.7377 
  12   0.0000       0.878060        23.8932 
  13   0.0000       0.878060        23.8932 
  14   0.0000       1.007437        27.4138 
  15   0.0000       1.007437        27.4138 
  16   0.0000       1.070914        29.1411 
  17   0.0000       1.192087        32.4383 
*Only the first 10 virtual orbitals were printed.

                    ********************************
                    * MULLIKEN POPULATION ANALYSIS *
                    ********************************

--------------------------------------------
MULLIKEN ATOMIC CHARGES AND SPIN POPULATIONS
--------------------------------------------
   0 O :   -0.000001    0.999999
   1 O :    0.000001    1.000001
Sum of atomic charges         :    0.0000000
Sum of atomic spin populations:    2.0000000

-----------------------------------------------------
MULLIKEN REDUCED ORBITAL CHARGES AND SPIN POPULATIONS
-----------------------------------------------------
CHARGE
  0 O s       :     3.954098  s :     3.954098
      pz      :     1.038566  p :     4.033729
      px      :     1.497582
      py      :     1.497582
      dz2     :     0.007337  d :     0.012174
      dxz     :     0.002418
      dyz     :     0.002418
      dx2y2   :     0.000000
      dxy     :     0.000000

  1 O s       :     3.954098  s :     3.954098
      pz      :     1.038565  p :     4.033727
      px      :     1.497581
      py      :     1.497581
      dz2     :     0.007337  d :     0.012174
      dxz     :     0.002418
      dyz     :     0.002418
      dx2y2   :     0.000000
      dxy     :     0.000000


SPIN
  0 O s       :     0.009862  s :     0.009862
      pz      :    -0.009834  p :     0.990693
      px      :     0.500263
      py      :     0.500263
      dz2     :    -0.000028  d :    -0.000556
      dxz     :    -0.000264
      dyz     :    -0.000264
      dx2y2   :     0.000000
      dxy     :     0.000000

  1 O s       :     0.009862  s :     0.009862
      pz      :    -0.009834  p :     0.990694
      px      :     0.500264
      py      :     0.500264
      dz2     :    -0.000028  d :    -0.000556
      dxz     :    -0.000264
      dyz     :    -0.000264
      dx2y2   :     0.000000
      dxy     :     0.000000



                     *******************************
                     * LOEWDIN POPULATION ANALYSIS *
                     *******************************

-------------------------------------------
LOEWDIN ATOMIC CHARGES AND SPIN POPULATIONS
-------------------------------------------
   0 O :   -0.000001    0.999999
   1 O :    0.000001    1.000001

----------------------------------------------------
LOEWDIN REDUCED ORBITAL CHARGES AND SPIN POPULATIONS
----------------------------------------------------
CHARGE
  0 O s       :     3.867343  s :     3.867343
      pz      :     1.121021  p :     4.114324
      px      :     1.496652
      py      :     1.496652
      dz2     :     0.011637  d :     0.018335
      dxz     :     0.003349
      dyz     :     0.003349
      dx2y2   :     0.000000
      dxy     :     0.000000

  1 O s       :     3.867343  s :     3.867343
      pz      :     1.121020  p :     4.114321
      px      :     1.496651
      py      :     1.496651
      dz2     :     0.011637  d :     0.018335
      dxz     :     0.003349
      dyz     :     0.003349
      dx2y2   :     0.000000
      dxy     :     0.000000


SPIN
  0 O s       :     0.009193  s :     0.009193
      pz      :    -0.009475  p :     0.989965
      px      :     0.499720
      py      :     0.499720
      dz2     :     0.000282  d :     0.000842
      dxz     :     0.000280
      dyz     :     0.000280
      dx2y2   :     0.000000
      dxy     :     0.000000

  1 O s       :     0.009193  s :     0.009193
      pz      :    -0.009475  p :     0.989966
      px      :     0.499721
      py      :     0.499721
      dz2     :     0.000282  d :     0.000842
      dxz     :     0.000280
      dyz     :     0.000280
      dx2y2   :     0.000000
      dxy     :     0.000000



                      *****************************
                      * MAYER POPULATION ANALYSIS *
                      *****************************

  NA   - Mulliken gross atomic population
  ZA   - Total nuclear charge
  QA   - Mulliken gross atomic charge
  VA   - Mayer's total valence
  BVA  - Mayer's bonded valence
  FA   - Mayer's free valence

  ATOM       NA         ZA         QA         VA         BVA        FA
  0 O      8.0000     8.0000    -0.0000     2.4786     1.9502     0.5284
  1 O      8.0000     8.0000     0.0000     2.4786     1.9502     0.5284

  Mayer bond orders larger than 0.100000
B(  0-O ,  1-O ) :   1.9502 

-------
TIMINGS
-------

Total SCF time: 0 days 0 hours 0 min 50 sec 

Total time                  ....      50.993 sec
Sum of individual times     ....      51.003 sec  (100.0%)

SCF preparation             ....       1.370 sec  (  2.7%)
Fock matrix formation       ....      24.346 sec  ( 47.7%)
  Startup                   ....       4.171 sec  ( 17.1% of F)
  Split-RI-J                ....       4.260 sec  ( 17.5% of F)
  Chain of spheres X        ....       7.011 sec  ( 28.8% of F)
  XC integration            ....       2.281 sec  (  9.4% of F)
    XC Preparation          ....       0.000 sec  (  0.0% of XC)
    Basis function eval.    ....       0.042 sec  (  1.8% of XC)
    Density eval.           ....       0.025 sec  (  1.1% of XC)
    XC-Functional eval.     ....       0.041 sec  (  1.8% of XC)
    XC-Potential eval.      ....       0.019 sec  (  0.8% of XC)
Diagonalization             ....       0.000 sec  (  0.0%)
Density matrix formation    ....       6.242 sec  ( 12.2%)
Total Energy calculation    ....       2.840 sec  (  5.6%)
Population analysis         ....       1.140 sec  (  2.2%)
Orbital Transformation      ....       2.961 sec  (  5.8%)
Orbital Orthonormalization  ....       0.000 sec  (  0.0%)
DIIS solution               ....       8.157 sec  ( 16.0%)
SOSCF solution              ....       3.948 sec  (  7.7%)
Finished LeanSCF after  51.6 sec

Maximum memory used throughout the entire LEANSCF-calculation: 5.1 MB


-------------------------------------------------------------------------------
                          DFT DISPERSION CORRECTION                            
                                                                               
                              DFTD3 V3.1  Rev 1                                
                          USING Becke-Johnson damping                          
-------------------------------------------------------------------------------
The PBE0 functional is recognized
Active option DFTDOPT                   ...         4   

molecular C6(AA) [au] = 51.575980 


            DFT-D V3
 parameters
 s6 scaling factor         :     1.0000 
 a1 scaling factor         :     0.4145 
 s8 scaling factor         :     1.2177 
 a2 scaling factor         :     4.8593 
 ad hoc parameters k1-k3   :    16.0000     1.3333    -4.0000 

 Edisp/kcal,au: -0.134992686506  -0.000215124516 
 E6   /kcal   :  -0.087301339 
 E8   /kcal   :  -0.047691347 
 % E8         :  35.328837736 

-------------------------   ----------------
Dispersion correction           -0.000215125
-------------------------   ----------------


-------------------------   --------------------
FINAL SINGLE POINT ENERGY      -149.976445233180
-------------------------   --------------------



           ************************************************************
           *        Program running with 4 parallel MPI-processes     *
           *              working on a common directory               *
           ************************************************************
------------------------------------------------------------------------------
                         ORCA SCF GRADIENT CALCULATION
------------------------------------------------------------------------------

Nuc. rep. gradient        (SHARK) ... done (  0.0 sec)
HCore & Overlap gradient  (SHARK) ... done (  0.0 sec)
Split-RIJ-J gradient      (SHARK) ... done (  0.4 sec)
COSX-gradient                     ... done (  0.4 sec)
XC gradient                       ... done (  0.1 sec)
Dispersion correction             ... done (  0.1 sec)

-------------------
DISPERSION GRADIENT
-------------------

   1   O   :    0.000000000    0.000000000   -0.000007815
   2   O   :    0.000000000    0.000000000    0.000007815

Difference to translation invariance:
           :    0.0000000000    0.0000000000    0.0000000000

Difference to rotation invariance:
           :    0.0000000000    0.0000000000    0.0000000000

Norm of the Dispersion gradient    ...    0.0000110515
RMS gradient                       ...    0.0000045118
MAX gradient                       ...    0.0000078146

------------------
CARTESIAN GRADIENT
------------------

   1   O   :   -0.000000017   -0.000000013    0.198327496
   2   O   :    0.000000017    0.000000013   -0.198327496

Difference to translation invariance:
           :    0.0000000000    0.0000000000   -0.0000000000

Difference to rotation invariance:
           :    0.0000000359   -0.0000000478    0.0000000000

Norm of the Cartesian gradient     ...    0.2804774340
RMS gradient                       ...    0.1145044330
MAX gradient                       ...    0.1983274956

-------
TIMINGS
-------

Total SCF gradient time     ....        1.064 sec

Densities                   ....       0.000 sec  (  0.0%)
One electron gradient       ....       0.005 sec  (  0.4%)
RI-J Coulomb gradient       ....       0.407 sec  ( 38.2%)
COSX gradient               ....       0.407 sec  ( 38.3%)
XC gradient                 ....       0.130 sec  ( 12.2%)

Maximum memory used throughout the entire SCFGRAD-calculation: 25.2 MB
------------------------------------------------------------------------------
                         ORCA GEOMETRY RELAXATION STEP
------------------------------------------------------------------------------

Reading the OPT-File                    .... done
Getting information on internals        .... done
Copying old internal coords+grads       .... done
Making the new internal coordinates     .... (2022 redundants) done
Validating the new internal coordinates .... (2022 redundants) done
Calculating the B-matrix                .... done
Calculating the G,G- and P matrices     .... done
Transforming gradient to internals      .... done
Projecting the internal gradient        .... done
Number of atoms                         ....   2
Number of internal coordinates          ....   1
Current Energy                          ....  -149.976445233 Eh
Current gradient norm                   ....     0.280477434 Eh/bohr
Maximum allowed component of the step   ....  0.300
Current trust radius                    ....  0.300
Evaluating the initial hessian          ....  (Almloef) done
Projecting the Hessian                  .... done
Forming the augmented Hessian           .... done
Diagonalizing the augmented Hessian     .... done
Last element of RFO vector              ....  0.914375824
Lowest eigenvalues of augmented Hessian:
 -0.087815261
Length of the computed step             ....  0.442779054
Warning: the length of the step is outside the trust region - taking restricted step instead
The input lambda is                     ....     0.359100
   iter:   5  x=    0.352507  g=606347.872181 f(x)=  1534.703098
   iter:  10  x=    0.302552  g= 1388.375865 f(x)=    26.572855
   iter:  15  x=   -0.031641  g=    3.683341 f(x)=     0.420971
   iter:  20  x=   -0.300992  g=    0.272322 f(x)=     0.000010
The output lambda is                    ....    -0.300992 (22 iterations)
The final length of the internal step   ....  0.300000000
Converting the step to Cartesian space:
 Initial RMS(Int)=    0.3000000000
Transforming coordinates:
 Iter   0:  RMS(Cart)=    0.0866025404 RMS(Int)=    0.3000000000
done
Storing new coordinates                 .... done

                                .--------------------.
          ----------------------|Geometry convergence|-------------------------
          Item                value                   Tolerance       Converged
          ---------------------------------------------------------------------
          RMS gradient        0.1983274956            0.0001000000      NO
          MAX gradient        0.1983274956            0.0003000000      NO
          RMS step            0.3000000000            0.0020000000      NO
          MAX step            0.3000000000            0.0040000000      NO
          ........................................................
          Max(Bonds)      0.1588      Max(Angles)    0.00
          Max(Dihed)        0.00      Max(Improp)    0.00
          ---------------------------------------------------------------------

The optimization has not yet converged - more geometry cycles are needed


    ---------------------------------------------------------------------------
                         Redundant Internal Coordinates
                            (Angstroem and degrees)

        Definition                    Value    dE/dq     Step     New-Value
    ----------------------------------------------------------------------------
     1. B(O   1,O   0)                1.4800  0.198327 -0.1588    1.3212   
    ----------------------------------------------------------------------------

Geometry step timings:
Preparation and reading OPT file:      0.007 s (10.549 %)
Internal coordinates            :      0.000 s ( 0.036 %)
B/P matrices and projection     :      0.000 s ( 0.165 %)
Hessian update/contruction      :      0.032 s (48.496 %)
Making the step                 :      0.008 s (11.968 %)
Converting the step to Cartesian:      0.000 s ( 0.065 %)
Storing new data                :      0.007 s (11.237 %)
Checking convergence            :      0.000 s ( 0.008 %)
Final printing                  :      0.012 s (17.455 %)
Total time                      :      0.066 s

Time for energy+gradient        :     63.738 s
Time for complete geometry iter :     66.793 s

         *************************************************************
         *                GEOMETRY OPTIMIZATION CYCLE   2            *
         *************************************************************
---------------------------------
CARTESIAN COORDINATES (ANGSTROEM)
---------------------------------
  O      0.000000    0.000000    1.400623
  O      0.000000    0.000000    0.079377

----------------------------
CARTESIAN COORDINATES (A.U.)
----------------------------
  NO LB      ZA    FRAG     MASS         X           Y           Z
   0 O     8.0000    0    15.999    0.000000    0.000000    2.646795
   1 O     8.0000    0    15.999    0.000000    0.000000    0.150000

--------------------------------
INTERNAL COORDINATES (ANGSTROEM)
--------------------------------
 O      0   0   0     0.000000000000     0.00000000     0.00000000
 O      1   0   0     1.321246837510     0.00000000     0.00000000

---------------------------
INTERNAL COORDINATES (A.U.)
---------------------------
 O      0   0   0     0.000000000000     0.00000000     0.00000000
 O      1   0   0     2.496794678203     0.00000000     0.00000000



           ************************************************************
           *        Program running with 4 parallel MPI-processes     *
           *              working on a common directory               *
           ************************************************************
------------------------------------------------------------------------------
                   ___                                                        
                  /   \      - P O W E R E D   B Y -                         
                 /     \                                                     
                 |  |  |   _    _      __       _____    __    __             
                 |  |  |  | |  | |    /  \     |  _  \  |  |  /  |          
                  \  \/   | |  | |   /    \    | | | |  |  | /  /          
                 / \  \   | |__| |  /  /\  \   | |_| |  |  |/  /          
                |  |  |   |  __  | /  /__\  \  |    /   |      \           
                |  |  |   | |  | | |   __   |  |    \   |  |\   \          
                \     /   | |  | | |  |  |  |  | |\  \  |  | \   \       
                 \___/    |_|  |_| |__|  |__|  |_| \__\ |__|  \__/        
                                                                              
                      - O R C A' S   B I G   F R I E N D -                    
                                      &                                       
                       - I N T E G R A L  F E E D E R -                       
                                                                              
 v1 FN, 2020, v2 2021, v3 2022-2024                                           
------------------------------------------------------------------------------


----------------------
SHARK INTEGRAL PACKAGE
----------------------

Number of atoms                             ...      2
Number of basis functions                   ...     28
Number of shells                            ...     12
Maximum angular momentum                    ...      2
Integral batch strategy                     ... SHARK/LIBINT Hybrid
RI-J (if used) integral strategy            ... SPLIT-RIJ (Revised 2003 algorithm where possible)
Printlevel                                  ...      1
Contraction scheme used                     ... SEGMENTED contraction
Prescreening option                         ... SCHWARTZ
   Thresh                                   ... 2.500e-11
   Tcut                                     ... 2.500e-12
   Tpresel                                  ... 2.500e-12 
Coulomb Range Separation                    ... NOT USED
Exchange Range Separation                   ... NOT USED
Multipole approximations                    ... NOT USED
Finite Nucleus Model                        ... NOT USED
CABS basis                                  ... NOT available
Auxiliary Coulomb fitting basis             ... AVAILABLE
   # of basis functions in Aux-J            ...     98
   # of shells in Aux-J                     ...     30
   Maximum angular momentum in Aux-J        ...      4
Auxiliary J/K fitting basis                 ... NOT available
Auxiliary Correlation fitting basis         ... NOT available
Auxiliary 'external' fitting basis          ... NOT available

Checking pre-screening integrals            ... done (  0.1 sec) Dimension = 12
Check shell pair data                       ... done (  0.0 sec)
Shell pair information
Shell pair cut-off parameter TPreSel        ...   2.5e-12
Total number of shell pairs                 ...        78
Shell pairs after pre-screening             ...        78
Total number of primitive shell pairs       ...       326
Primitive shell pairs kept                  ...       293
          la=0 lb=0:     21 shell pairs
          la=1 lb=0:     24 shell pairs
          la=1 lb=1:     10 shell pairs
          la=2 lb=0:     12 shell pairs
          la=2 lb=1:      8 shell pairs
          la=2 lb=2:      3 shell pairs

Calculating one electron integrals          ... done (  0.0 sec)
Calculating RI/J V-Matrix + Cholesky decomp.... done (  0.0 sec)
Calculating Nuclear repulsion               ... done (  0.0 sec) ENN=     25.632864631885 Eh

Diagonalization of the overlap matrix:
Smallest eigenvalue                        ... 2.297e-02
Time for diagonalization                   ...    0.000 sec
Threshold for overlap eigenvalues          ... 1.000e-07
Number of eigenvalues below threshold      ... 0
Time for construction of square roots      ...    0.021 sec
Total time needed                          ...    0.067 sec

-------------------
DFT GRID GENERATION
-------------------

General Integration Accuracy     IntAcc      ... 4.388
Radial Grid Type                 RadialGrid  ... OptM3 with GC (2021)
Angular Grid (max. ang.)         AngularGrid ... 4 (Lebedev-302)
Angular grid pruning method      GridPruning ... 4 (adaptive)
Weight generation scheme         WeightScheme... mBecke (2022)
Basis function cutoff            BFCut       ... 1.0000e-11
Integration weight cutoff        WCut        ... 1.0000e-14
Partially contracted basis set               ... off
Rotationally invariant grid construction     ... off
Angular grids for H and He will be reduced by one unit

Total number of grid points                  ...    12260
Total number of batches                      ...      192
Average number of points per batch           ...       63
Average number of grid points per atom       ...     6130

--------------------
COSX GRID GENERATION
--------------------

GRIDX 1
-------
General Integration Accuracy     IntAcc      ... 3.816
Radial Grid Type                 RadialGrid  ... OptM3 with GC (2021)
Angular Grid (max. ang.)         AngularGrid ... 1 (Lebedev-50)
Angular grid pruning method      GridPruning ... 4 (adaptive)
Weight generation scheme         WeightScheme... mBecke (2022)
Basis function cutoff            BFCut       ... 1.0000e-11
Integration weight cutoff        WCut        ... 1.0000e-14
Partially contracted basis set               ... on
Rotationally invariant grid construction     ... off
Angular grids for H and He will be reduced by one unit

Total number of grid points                  ...     1536
Total number of batches                      ...       14
Average number of points per batch           ...      109
Average number of grid points per atom       ...      768
UseSFitting                                  ... on

GRIDX 2
-------
General Integration Accuracy     IntAcc      ... 4.020
Radial Grid Type                 RadialGrid  ... OptM3 with GC (2021)
Angular Grid (max. ang.)         AngularGrid ... 2 (Lebedev-110)
Angular grid pruning method      GridPruning ... 4 (adaptive)
Weight generation scheme         WeightScheme... mBecke (2022)
Basis function cutoff            BFCut       ... 1.0000e-11
Integration weight cutoff        WCut        ... 1.0000e-14
Partially contracted basis set               ... on
Rotationally invariant grid construction     ... off
Angular grids for H and He will be reduced by one unit

Total number of grid points                  ...     3764
Total number of batches                      ...       30
Average number of points per batch           ...      125
Average number of grid points per atom       ...     1882
UseSFitting                                  ... on

GRIDX 3
-------
General Integration Accuracy     IntAcc      ... 4.338
Radial Grid Type                 RadialGrid  ... OptM3 with GC (2021)
Angular Grid (max. ang.)         AngularGrid ... 3 (Lebedev-194)
Angular grid pruning method      GridPruning ... 4 (adaptive)
Weight generation scheme         WeightScheme... mBecke (2022)
Basis function cutoff            BFCut       ... 1.0000e-11
Integration weight cutoff        WCut        ... 1.0000e-14
Partially contracted basis set               ... on
Rotationally invariant grid construction     ... off
Angular grids for H and He will be reduced by one unit

Total number of grid points                  ...     8426
Total number of batches                      ...       66
Average number of points per batch           ...      127
Average number of grid points per atom       ...     4213
UseSFitting                                  ... on
Initializing property integral containers    ... done (  0.1 sec)

SHARK setup successfully completed in   1.6 seconds

Maximum memory used throughout the entire STARTUP-calculation: 8.7 MB


           ************************************************************
           *        Program running with 4 parallel MPI-processes     *
           *              working on a common directory               *
           ************************************************************
             **** ENERGY FILE WAS UPDATED (CS_PdOAc_007_opt_01.en.tmp) ****
Finished Guess after   3.4 sec
Maximum memory used throughout the entire GUESS-calculation: 5.4 MB


           ************************************************************
           *        Program running with 4 parallel MPI-processes     *
           *              working on a common directory               *
           ************************************************************
----------------------------------------D-I-I-S--------------------------------------------
Iteration    Energy (Eh)           Delta-E    RMSDP     MaxDP     DIISErr   Damp  Time(sec)
-------------------------------------------------------------------------------------------
               ***  Starting incremental Fock matrix formation  ***
    1    -150.0184357930586145     0.00e+00  5.26e-04  3.80e-03  3.18e-02  0.850   6.5
    2    -150.0201211613451449    -1.69e-03  5.31e-04  3.86e-03  2.76e-02  0.850   8.0
                               ***Turning on AO-DIIS***
    3    -150.0215988790430117    -1.48e-03  5.03e-04  3.58e-03  2.35e-02  0.850   3.8
    4    -150.0228621915601082    -1.26e-03  2.99e-03  2.11e-02  2.01e-02  0.000   4.2
    5    -150.0304325784073853    -7.57e-03  1.26e-04  7.36e-04  1.09e-03  0.000   6.1
                              *** Initializing SOSCF ***
---------------------------------------S-O-S-C-F--------------------------------------
Iteration    Energy (Eh)           Delta-E    RMSDP     MaxDP     MaxGrad    Time(sec)
--------------------------------------------------------------------------------------
    6    -150.0304436189451280    -1.10e-05  3.69e-05  3.47e-04  3.38e-04     6.6
               *** Restarting incremental Fock matrix formation ***
    7    -150.0304450489167039    -1.43e-06  7.30e-06  6.10e-05  5.84e-05     5.3
    8    -150.0304450736431647    -2.47e-08  2.14e-06  1.68e-05  1.35e-05     6.2
    9    -150.0304450749219995    -1.28e-09  1.06e-06  8.73e-06  5.30e-06     5.4
                 **** Energy Check signals convergence ****

               *****************************************************
               *                     SUCCESS                       *
               *           SCF CONVERGED AFTER   9 CYCLES          *
               *****************************************************

Recomputing exchange energy using gridx3       ... done (    0.396 sec)
Old exchange energy                            :     -4.046341001 Eh
New exchange energy                            :     -4.046333824 Eh
Exchange energy change after final integration :      0.000007178 Eh
Total energy after final integration           :   -150.030437897 Eh
             **** ENERGY FILE WAS UPDATED (CS_PdOAc_007_opt_01.en.tmp) ****

----------------
TOTAL SCF ENERGY
----------------

Total Energy       :       -150.03043789724848 Eh           -4082.53577 eV

Components:
Nuclear Repulsion  :         25.63286463188502 Eh             697.50571 eV
Electronic Energy  :       -175.66330970680701 Eh           -4780.04167 eV
One Electron Energy:       -256.95193022472421 Eh           -6992.01749 eV
Two Electron Energy:         81.28862051791721 Eh            2211.97582 eV

Virial components:
Potential Energy   :       -299.18175329275812 Eh           -8141.14940 eV
Kinetic Energy     :        149.15131539550961 Eh            4058.61363 eV
Virial Ratio       :          2.00589416526034

DFT components:
N(Alpha)           :        8.999999598894 electrons
N(Beta)            :        6.999999715586 electrons
N(Total)           :       15.999999314480 electrons
E(X)               :      -12.204190796510 Eh       
E(C)               :       -0.524328750687 Eh       
E(XC)              :      -12.728519547196 Eh       

---------------
SCF CONVERGENCE
---------------

  Last Energy change         ...    1.2788e-09  Tolerance :   1.0000e-08
  Last MAX-Density change    ...    8.7317e-06  Tolerance :   1.0000e-07
  Last RMS-Density change    ...    1.0625e-06  Tolerance :   5.0000e-09
  Last DIIS Error            ...    3.3825e-04  Tolerance :   5.0000e-07
  Last Orbital Gradient      ...    5.3025e-06  Tolerance :   1.0000e-05
  Last Orbital Rotation      ...    1.4421e-05  Tolerance :   1.0000e-05


----------------------
UHF SPIN CONTAMINATION
----------------------

Warning: in a DFT calculation there is little theoretical justification to 
         calculate <S**2> as in Hartree-Fock theory. We will do it anyways
         but you should keep in mind that the values have only limited relevance

Expectation value of <S**2>     :     2.008022
Ideal value S*(S+1) for S=1.0   :     2.000000
Deviation                       :     0.008022

Total SCF time: 0 days 0 hours 0 min 58 sec 
Finished LeanSCF after  60.0 sec

Maximum memory used throughout the entire LEANSCF-calculation: 5.3 MB


-------------------------------------------------------------------------------
                          DFT DISPERSION CORRECTION                            
                                                                               
                              DFTD3 V3.1  Rev 1                                
                          USING Becke-Johnson damping                          
-------------------------------------------------------------------------------
-------------------------   ----------------
Dispersion correction           -0.000214276
-------------------------   ----------------


-------------------------   --------------------
FINAL SINGLE POINT ENERGY      -150.030652173294
-------------------------   --------------------



           ************************************************************
           *        Program running with 4 parallel MPI-processes     *
           *              working on a common directory               *
           ************************************************************
------------------------------------------------------------------------------
                         ORCA SCF GRADIENT CALCULATION
------------------------------------------------------------------------------

Nuc. rep. gradient        (SHARK) ... done (  0.0 sec)
HCore & Overlap gradient  (SHARK) ... done (  0.0 sec)
Split-RIJ-J gradient      (SHARK) ... done (  0.4 sec)
COSX-gradient                     ... done (  0.4 sec)
XC gradient                       ... done (  0.1 sec)
Dispersion correction             ... done (  0.0 sec)

-------------------
DISPERSION GRADIENT
-------------------

   1   O   :    0.000000000    0.000000000   -0.000000342
   2   O   :    0.000000000    0.000000000    0.000000342

Difference to translation invariance:
           :    0.0000000000    0.0000000000    0.0000000000

Difference to rotation invariance:
           :    0.0000000000    0.0000000000    0.0000000000

Norm of the Dispersion gradient    ...    0.0000004834
RMS gradient                       ...    0.0000001973
MAX gradient                       ...    0.0000003418

------------------
CARTESIAN GRADIENT
------------------

   1   O   :   -0.000000039   -0.000000022    0.149325154
   2   O   :    0.000000039    0.000000022   -0.149325154

Difference to translation invariance:
           :   -0.0000000000    0.0000000000    0.0000000000

Difference to rotation invariance:
           :    0.0000000548   -0.0000000973    0.0000000000

Norm of the Cartesian gradient     ...    0.2111776576
RMS gradient                       ...    0.0862129177
MAX gradient                       ...    0.1493251538

-------
TIMINGS
-------

Total SCF gradient time     ....        0.966 sec

Densities                   ....       0.000 sec  (  0.0%)
One electron gradient       ....       0.004 sec  (  0.4%)
RI-J Coulomb gradient       ....       0.361 sec  ( 37.4%)
COSX gradient               ....       0.389 sec  ( 40.2%)
XC gradient                 ....       0.126 sec  ( 13.0%)

Maximum memory used throughout the entire SCFGRAD-calculation: 25.2 MB
------------------------------------------------------------------------------
                         ORCA GEOMETRY RELAXATION STEP
------------------------------------------------------------------------------

Reading the OPT-File                    .... done
Getting information on internals        .... done
Copying old internal coords+grads       .... done
Making the new internal coordinates     .... (2022 redundants) done
Validating the new internal coordinates .... (2022 redundants) done
Calculating the B-matrix                .... done
Calculating the G,G- and P matrices     .... done
Transforming gradient to internals      .... done
Projecting the internal gradient        .... done
Number of atoms                         ....   2
Number of internal coordinates          ....   1
Current Energy                          ....  -150.030652173 Eh
Current gradient norm                   ....     0.211177658 Eh/bohr
Maximum allowed component of the step   ....  0.300
Current trust radius                    ....  0.300
Updating the Hessian (BFGS)             .... done
Forming the augmented Hessian           .... done
Diagonalizing the augmented Hessian     .... done
Last element of RFO vector              ....  0.860188998
Lowest eigenvalues of augmented Hessian:
 -0.088529558
Length of the computed step             ....  0.592864336
Warning: the length of the step is outside the trust region - taking restricted step instead
The input lambda is                     ....     0.162341
   iter:   5  x=    0.155748  g=343745.405446 f(x)=   869.991421
   iter:  10  x=    0.105882  g=  788.684314 f(x)=    15.045756
   iter:  15  x=   -0.199035  g=    2.335831 f(x)=     0.222150
   iter:  20  x=   -0.334409  g=    0.361627 f(x)=     0.000000
The output lambda is                    ....    -0.334409 (22 iterations)
The final length of the internal step   ....  0.300000000
Converting the step to Cartesian space:
 Initial RMS(Int)=    0.3000000000
Transforming coordinates:
 Iter   0:  RMS(Cart)=    0.0866025404 RMS(Int)=    0.3000000000
done
Storing new coordinates                 .... done
The predicted energy change is          ....    -0.037447195
Previously predicted energy change      ....    -0.043293749
Actually observed energy change         ....    -0.054206940
Ratio of predicted to observed change   ....     1.252073146
New trust radius                        ....     0.300000000

                                .--------------------.
          ----------------------|Geometry convergence|-------------------------
          Item                value                   Tolerance       Converged
          ---------------------------------------------------------------------
          Energy change      -0.0542069401            0.0000050000      NO
          RMS gradient        0.1493251538            0.0001000000      NO
          MAX gradient        0.1493251538            0.0003000000      NO
          RMS step            0.3000000000            0.0020000000      NO
          MAX step            0.3000000000            0.0040000000      NO
          ........................................................
          Max(Bonds)      0.1588      Max(Angles)    0.00
          Max(Dihed)        0.00      Max(Improp)    0.00
          ---------------------------------------------------------------------

The optimization has not yet converged - more geometry cycles are needed


    ---------------------------------------------------------------------------
                         Redundant Internal Coordinates
                            (Angstroem and degrees)

        Definition                    Value    dE/dq     Step     New-Value
    ----------------------------------------------------------------------------
     1. B(O   1,O   0)                1.3212  0.149325 -0.1588    1.1625   
    ----------------------------------------------------------------------------

Geometry step timings:
Preparation and reading OPT file:      0.009 s ( 5.550 %)
Internal coordinates            :      0.000 s ( 0.015 %)
B/P matrices and projection     :      0.000 s ( 0.064 %)
Hessian update/contruction      :      0.112 s (72.634 %)
Making the step                 :      0.000 s ( 0.049 %)
Converting the step to Cartesian:      0.000 s ( 0.017 %)
Storing new data                :      0.016 s (10.474 %)
Checking convergence            :      0.000 s ( 0.013 %)
Final printing                  :      0.017 s (11.182 %)
Total time                      :      0.154 s

Time for energy+gradient        :     72.353 s
Time for complete geometry iter :     76.770 s

         *************************************************************
         *                GEOMETRY OPTIMIZATION CYCLE   3            *
         *************************************************************
---------------------------------
CARTESIAN COORDINATES (ANGSTROEM)
---------------------------------
  O      0.000000    0.000000    1.321247
  O      0.000000    0.000000    0.158753

----------------------------
CARTESIAN COORDINATES (A.U.)
----------------------------
  NO LB      ZA    FRAG     MASS         X           Y           Z
   0 O     8.0000    0    15.999    0.000000    0.000000    2.496795
   1 O     8.0000    0    15.999    0.000000    0.000000    0.300000

--------------------------------
INTERNAL COORDINATES (ANGSTROEM)
--------------------------------
 O      0   0   0     0.000000000000     0.00000000     0.00000000
 O      1   0   0     1.162493675020     0.00000000     0.00000000

---------------------------
INTERNAL COORDINATES (A.U.)
---------------------------
 O      0   0   0     0.000000000000     0.00000000     0.00000000
 O      1   0   0     2.196794678203     0.00000000     0.00000000



           ************************************************************
           *        Program running with 4 parallel MPI-processes     *
           *              working on a common directory               *
           ************************************************************
------------------------------------------------------------------------------
                   ___                                                        
                  /   \      - P O W E R E D   B Y -                         
                 /     \                                                     
                 |  |  |   _    _      __       _____    __    __             
                 |  |  |  | |  | |    /  \     |  _  \  |  |  /  |          
                  \  \/   | |  | |   /    \    | | | |  |  | /  /          
                 / \  \   | |__| |  /  /\  \   | |_| |  |  |/  /          
                |  |  |   |  __  | /  /__\  \  |    /   |      \           
                |  |  |   | |  | | |   __   |  |    \   |  |\   \          
                \     /   | |  | | |  |  |  |  | |\  \  |  | \   \       
                 \___/    |_|  |_| |__|  |__|  |_| \__\ |__|  \__/        
                                                                              
                      - O R C A' S   B I G   F R I E N D -                    
                                      &                                       
                       - I N T E G R A L  F E E D E R -                       
                                                                              
 v1 FN, 2020, v2 2021, v3 2022-2024                                           
------------------------------------------------------------------------------


----------------------
SHARK INTEGRAL PACKAGE
----------------------

Number of atoms                             ...      2
Number of basis functions                   ...     28
Number of shells                            ...     12
Maximum angular momentum                    ...      2
Integral batch strategy                     ... SHARK/LIBINT Hybrid
RI-J (if used) integral strategy            ... SPLIT-RIJ (Revised 2003 algorithm where possible)
Printlevel                                  ...      1
Contraction scheme used                     ... SEGMENTED contraction
Prescreening option                         ... SCHWARTZ
   Thresh                                   ... 2.500e-11
   Tcut                                     ... 2.500e-12
   Tpresel                                  ... 2.500e-12 
Coulomb Range Separation                    ... NOT USED
Exchange Range Separation                   ... NOT USED
Multipole approximations                    ... NOT USED
Finite Nucleus Model                        ... NOT USED
CABS basis                                  ... NOT available
Auxiliary Coulomb fitting basis             ... AVAILABLE
   # of basis functions in Aux-J            ...     98
   # of shells in Aux-J                     ...     30
   Maximum angular momentum in Aux-J        ...      4
Auxiliary J/K fitting basis                 ... NOT available
Auxiliary Correlation fitting basis         ... NOT available
Auxiliary 'external' fitting basis          ... NOT available

Checking pre-screening integrals            ... done (  0.1 sec) Dimension = 12
Check shell pair data                       ... done (  0.6 sec)
Shell pair information
Shell pair cut-off parameter TPreSel        ...   2.5e-12
Total number of shell pairs                 ...        78
Shell pairs after pre-screening             ...        78
Total number of primitive shell pairs       ...       326
Primitive shell pairs kept                  ...       297
          la=0 lb=0:     21 shell pairs
          la=1 lb=0:     24 shell pairs
          la=1 lb=1:     10 shell pairs
          la=2 lb=0:     12 shell pairs
          la=2 lb=1:      8 shell pairs
          la=2 lb=2:      3 shell pairs

Calculating one electron integrals          ... done (  0.0 sec)
Calculating RI/J V-Matrix + Cholesky decomp.... done (  0.0 sec)
Calculating Nuclear repulsion               ... done (  0.0 sec) ENN=     29.133355354056 Eh

Diagonalization of the overlap matrix:
Smallest eigenvalue                        ... 1.252e-02
Time for diagonalization                   ...    0.000 sec
Threshold for overlap eigenvalues          ... 1.000e-07
Number of eigenvalues below threshold      ... 0
Time for construction of square roots      ...    0.039 sec
Total time needed                          ...    0.115 sec

-------------------
DFT GRID GENERATION
-------------------

General Integration Accuracy     IntAcc      ... 4.388
Radial Grid Type                 RadialGrid  ... OptM3 with GC (2021)
Angular Grid (max. ang.)         AngularGrid ... 4 (Lebedev-302)
Angular grid pruning method      GridPruning ... 4 (adaptive)
Weight generation scheme         WeightScheme... mBecke (2022)
Basis function cutoff            BFCut       ... 1.0000e-11
Integration weight cutoff        WCut        ... 1.0000e-14
Partially contracted basis set               ... off
Rotationally invariant grid construction     ... off
Angular grids for H and He will be reduced by one unit

Total number of grid points                  ...    12258
[...]

----------------
TOTAL SCF ENERGY
----------------

Total Energy       :       -150.05245287647722 Eh           -4083.13483 eV

Components:
Nuclear Repulsion  :         28.50236822938220 Eh             775.58887 eV
Electronic Energy  :       -178.55484049872774 Eh           -4858.72422 eV
One Electron Energy:       -262.49287146518844 Eh           -7142.79417 eV
Two Electron Energy:         83.93803096646072 Eh            2284.06994 eV

Virial components:
Potential Energy   :       -299.54682151752195 Eh           -8151.08341 eV
Kinetic Energy     :        149.49436864104476 Eh            4067.94858 eV
Virial Ratio       :          2.00373314553923

DFT components:
N(Alpha)           :        8.999999687751 electrons
N(Beta)            :        6.999999863907 electrons
N(Total)           :       15.999999551658 electrons
E(X)               :      -12.277909124946 Eh       
E(C)               :       -0.533310827545 Eh       
E(XC)              :      -12.811219952491 Eh       

---------------
SCF CONVERGENCE
---------------

  Last Energy change         ...    9.8311e-11  Tolerance :   1.0000e-08
  Last MAX-Density change    ...    5.7081e-06  Tolerance :   1.0000e-07
  Last RMS-Density change    ...    6.7074e-07  Tolerance :   5.0000e-09
  Last DIIS Error            ...    1.9692e-05  Tolerance :   5.0000e-07
  Last Orbital Gradient      ...    1.0284e-05  Tolerance :   1.0000e-05
  Last Orbital Rotation      ...    9.8065e-06  Tolerance :   1.0000e-05


----------------------
UHF SPIN CONTAMINATION
----------------------

Warning: in a DFT calculation there is little theoretical justification to 
         calculate <S**2> as in Hartree-Fock theory. We will do it anyways
         but you should keep in mind that the values have only limited relevance

Expectation value of <S**2>     :     2.007028
Ideal value S*(S+1) for S=1.0   :     2.000000
Deviation                       :     0.007028

----------------
ORBITAL ENERGIES
----------------
                 SPIN UP ORBITALS
  NO   OCC          E(Eh)            E(eV) 
   0   1.0000     -19.362100      -526.8695 
   1   1.0000     -19.361861      -526.8630 
   2   1.0000      -1.345482       -36.6124 
   3   1.0000      -0.839129       -22.8339 
   4   1.0000      -0.593097       -16.1390 
   5   1.0000      -0.593097       -16.1390 
   6   1.0000      -0.567896       -15.4532 
   7   1.0000      -0.318782        -8.6745 
   8   1.0000      -0.318782        -8.6745 
   9   0.0000       0.256396         6.9769 
  10   0.0000       0.736540        20.0423 
  11   0.0000       0.829908        22.5829 
  12   0.0000       0.829908        22.5829 
  13   0.0000       0.846655        23.0387 
  14   0.0000       0.911496        24.8031 
  15   0.0000       0.946782        25.7632 
  16   0.0000       0.946782        25.7632 
  17   0.0000       1.185729        32.2653 
  18   0.0000       2.082177        56.6589 
  19   0.0000       2.082177        56.6589 

                 SPIN DOWN ORBITALS
  NO   OCC          E(Eh)            E(eV) 
   0   1.0000     -19.330064      -525.9978 
   1   1.0000     -19.330013      -525.9964 
   2   1.0000      -1.286575       -35.0095 
   3   1.0000      -0.744508       -20.2591 
   4   1.0000      -0.525803       -14.3078 
   5   1.0000      -0.479893       -13.0586 
   6   1.0000      -0.479893       -13.0586 
   7   0.0000      -0.092257        -2.5104 
   8   0.0000      -0.092257        -2.5104 
   9   0.0000       0.304737         8.2923 
  10   0.0000       0.766611        20.8605 
  11   0.0000       0.871338        23.7103 
  12   0.0000       0.892842        24.2955 
  13   0.0000       0.892842        24.2955 
  14   0.0000       0.924167        25.1479 
  15   0.0000       1.012313        27.5464 
  16   0.0000       1.012313        27.5464 
  17   0.0000       1.220570        33.2134 
*Only the first 10 virtual orbitals were printed.

                    ********************************
                    * MULLIKEN POPULATION ANALYSIS *
                    ********************************

--------------------------------------------
MULLIKEN ATOMIC CHARGES AND SPIN POPULATIONS
--------------------------------------------
   0 O :    0.000005    1.000003
   1 O :   -0.000005    0.999997
Sum of atomic charges         :    0.0000000
Sum of atomic spin populations:    2.0000000

-----------------------------------------------------
MULLIKEN REDUCED ORBITAL CHARGES AND SPIN POPULATIONS
-----------------------------------------------------
CHARGE
  0 O s       :     3.897869  s :     3.897869
      pz      :     1.087647  p :     4.068302
      px      :     1.490327
      py      :     1.490327
      dz2     :     0.014482  d :     0.033824
      dxz     :     0.009671
      dyz     :     0.009671
      dx2y2   :     0.000000
      dxy     :     0.000000

  1 O s       :     3.897868  s :     3.897868
      pz      :     1.087651  p :     4.068313
      px      :     1.490331
      py      :     1.490331
      dz2     :     0.014482  d :     0.033824
      dxz     :     0.009671
      dyz     :     0.009671
      dx2y2   :     0.000000
      dxy     :     0.000000


SPIN
  0 O s       :     0.019417  s :     0.019417
      pz      :    -0.019467  p :     0.981578
      px      :     0.500522
      py      :     0.500522
      dz2     :     0.000050  d :    -0.000991
      dxz     :    -0.000521
      dyz     :    -0.000521
      dx2y2   :     0.000000
      dxy     :     0.000000

  1 O s       :     0.019417  s :     0.019417
      pz      :    -0.019467  p :     0.981571
      px      :     0.500519
      py      :     0.500519
      dz2     :     0.000050  d :    -0.000991
      dxz     :    -0.000520
      dyz     :    -0.000520
      dx2y2   :    -0.000000
      dxy     :     0.000000



                     *******************************
                     * LOEWDIN POPULATION ANALYSIS *
                     *******************************

-------------------------------------------
LOEWDIN ATOMIC CHARGES AND SPIN POPULATIONS
-------------------------------------------
   0 O :    0.000005    1.000003
   1 O :   -0.000005    0.999997

----------------------------------------------------
LOEWDIN REDUCED ORBITAL CHARGES AND SPIN POPULATIONS
----------------------------------------------------
CHARGE
  0 O s       :     3.696686  s :     3.696686
      pz      :     1.272006  p :     4.240438
      px      :     1.484216
      py      :     1.484216
      dz2     :     0.031307  d :     0.062871
      dxz     :     0.015782
      dyz     :     0.015782
      dx2y2   :     0.000000
      dxy     :     0.000000

  1 O s       :     3.696686  s :     3.696686
      pz      :     1.272009  p :     4.240448
      px      :     1.484220
      py      :     1.484220
      dz2     :     0.031307  d :     0.062871
      dxz     :     0.015782
      dyz     :     0.015782
      dx2y2   :     0.000000
      dxy     :     0.000000


SPIN
  0 O s       :     0.012753  s :     0.012753
      pz      :    -0.013866  p :     0.978821
      px      :     0.496343
      py      :     0.496343
      dz2     :     0.001113  d :     0.008430
      dxz     :     0.003659
      dyz     :     0.003659
      dx2y2   :     0.000000
      dxy     :     0.000000

  1 O s       :     0.012753  s :     0.012753
      pz      :    -0.013865  p :     0.978814
      px      :     0.496340
      py      :     0.496340
      dz2     :     0.001113  d :     0.008430
      dxz     :     0.003659
      dyz     :     0.003659
      dx2y2   :    -0.000000
      dxy     :     0.000000



                      *****************************
                      * MAYER POPULATION ANALYSIS *
                      *****************************

  NA   - Mulliken gross atomic population
  ZA   - Total nuclear charge
  QA   - Mulliken gross atomic charge
  VA   - Mayer's total valence
  BVA  - Mayer's bonded valence
  FA   - Mayer's free valence

  ATOM       NA         ZA         QA         VA         BVA        FA
  0 O      8.0000     8.0000     0.0000     2.3616     1.8305     0.5312
  1 O      8.0000     8.0000    -0.0000     2.3616     1.8305     0.5312

  Mayer bond orders larger than 0.100000
B(  0-O ,  1-O ) :   1.8305 

-------
TIMINGS
-------

Total SCF time: 0 days 0 hours 0 min 25 sec 

Total time                  ....      25.465 sec
Sum of individual times     ....      23.092 sec  ( 90.7%)

SCF preparation             ....       1.349 sec  (  5.3%)
Fock matrix formation       ....      10.219 sec  ( 40.1%)
  Startup                   ....       3.301 sec  ( 32.3% of F)
  Split-RI-J                ....       1.358 sec  ( 13.3% of F)
  Chain of spheres X        ....       2.556 sec  ( 25.0% of F)
  XC integration            ....       0.744 sec  (  7.3% of F)
    Basis function eval.    ....       0.013 sec  (  1.7% of XC)
    Density eval.           ....       0.008 sec  (  1.1% of XC)
    XC-Functional eval.     ....       0.013 sec  (  1.7% of XC)
    XC-Potential eval.      ....       0.006 sec  (  0.8% of XC)
Diagonalization             ....       0.000 sec  (  0.0%)
Density matrix formation    ....       3.310 sec  ( 13.0%)
Total Energy calculation    ....       1.363 sec  (  5.4%)
Population analysis         ....       2.390 sec  (  9.4%)
Orbital Transformation      ....       0.665 sec  (  2.6%)
Orbital Orthonormalization  ....       0.000 sec  (  0.0%)
DIIS solution               ....       0.891 sec  (  3.5%)
SOSCF solution              ....       2.907 sec  ( 11.4%)
Finished LeanSCF after  26.2 sec

Maximum memory used throughout the entire LEANSCF-calculation: 5.7 MB


-------------------------------------------------------------------------------
                          DFT DISPERSION CORRECTION                            
                                                                               
                              DFTD3 V3.1  Rev 1                                
                          USING Becke-Johnson damping                          
-------------------------------------------------------------------------------
The PBE0 functional is recognized
Active option DFTDOPT                   ...         4   

molecular C6(AA) [au] = 51.243340 


            DFT-D V3
 parameters
 s6 scaling factor         :     1.0000 
 a1 scaling factor         :     0.4145 
 s8 scaling factor         :     1.2177 
 a2 scaling factor         :     4.8593 
 ad hoc parameters k1-k3   :    16.0000     1.3333    -4.0000 

 Edisp/kcal,au: -0.134486475894  -0.000214317818 
 E6   /kcal   :  -0.087067485 
 E8   /kcal   :  -0.047418990 
 % E8         :  35.259300339 

-------------------------   ----------------
Dispersion correction           -0.000214318
-------------------------   ----------------


-------------------------   --------------------
FINAL SINGLE POINT ENERGY      -150.052667194296
-------------------------   --------------------

                                *** OPTIMIZATION RUN DONE ***



           ************************************************************
           *        Program running with 4 parallel MPI-processes     *
           *              working on a common directory               *
           ************************************************************

------------------------------------------------------------------------------
                              ORCA PROPERTY CALCULATIONS
------------------------------------------------------------------------------

GBWName                                 ... CS_PdOAc_007_opt_01.gbw
Number of atoms                         ...      2
Number of basis functions               ...     28
Max core memory                         ...   3500 MB

Electric properties:
Dipole moment                           ... YES
Quadrupole moment                       ...  NO
Static polarizability (Dipole/Dipole)   ...  NO
Static polarizability (Dipole/Quad.)    ...  NO
Static polarizability (Quad./Quad.)     ...  NO
Static polarizability (Velocity)        ...  NO

Atomic electric properties:
Dipole moment                           ...  NO
Quadrupole moment                       ...  NO
Static polarizability                   ...  NO

Choice of electric origin               ... Center of mass
Position of electric origin             ...     0.000000     0.000000     1.398397

General magnetic properties:
Magnetizability                         ...  NO

EPR properties:
g-Tensor (aka g-matrix)                 ...  NO
Zero-Field splitting spin-orbit         ...  NO
Zero-field splitting spin-spin          ...  NO
Hyperfine couplings                     ...  NO (   0 nuclei)
Quadrupole couplings                    ...  NO (   0 nuclei)
Contact density                         ...  NO (   0 nuclei)

NMR properties:
Chemical shifts                         ...  NO (   0 nuclei)
Spin-rotation constants                 ...  NO (   0 nuclei)
Spin-spin couplings                     ...  NO (   0 nuclei,    0 pairs)

Choice of magnetic origin               ... GIAO
Position of magnetic origin             ...     0.000000     0.000000     0.000000

Properties with geometric perturbations:
SCF Hessian                             ...  NO
IR spectrum                             ...  NO
VCD spectrum                            ...  NO
X-ray spectroscopy properties:
SCF XES/XAS/RIXS spectra                ...  NO


-------------
DIPOLE MOMENT
-------------

Method             : SCF
Type of density    : Electron Density
Multiplicity       :   3
Irrep              :   0
Energy             :  -150.0524528764772185 Eh
Relativity type    : 
Basis              : AO
                                X                 Y                 Z
Electronic contribution:     -0.000000002       0.000000000       0.000011482
Nuclear contribution   :      0.000000000       0.000000000      -0.000000000
                        -----------------------------------------
Total Dipole Moment    :     -0.000000002       0.000000000       0.000011482
                        -----------------------------------------
Magnitude (a.u.)       :      0.000011482
Magnitude (Debye)      :      0.000029184



--------------------
Rotational spectrum 
--------------------
 
Rotational constants in cm-1:             0.000000             1.492567             1.492567 
Rotational constants in MHz :             0.000000         44746.023324         44746.023324 

Dipole components along the rotational axes: 
x,y,z [a.u.] :     0.000011     0.000000    -0.000000 
x,y,z [Debye]:     0.000029     0.000000    -0.000000 

 

Dipole moment calculation done in   0.3 sec 

Maximum memory used throughout the entire PROP-calculation: 4.0 MB

--------------------------------
SUGGESTED CITATIONS FOR THIS RUN
--------------------------------

Below you find a list of papers that are relevant to this ORCA run
We neither can nor want to force you to cite these papers, but we appreciate if you do
You receive ORCA, which is the product of decades of hard work by many enthusiastic individuals, for free
The only thing we kindly ask in return is that you cite our papers,
We deeply appreciate it, if you show your appreciation for ORCA by not just citing the generic ORCA reference.

Please note that relegating all ORCA citations to the supporting information does *not* help us.
SI sections are not indexed - citations you put there will not count into any citation statistics
But we need these citations in order to attract the funding resources that allow us to do what we are doing

Therefore, if you are a happy ORCA user, please consider citing a few of the papers listed below in the main body of your paper

In addition to the list printed below, the program has created the file CS_PdOAc_007_opt_01.bibtex that contains the list in bibtex format
You can import this file easily into all common literature databanks and citation aid programs


List of essential papers. We consider these as the minimum necessary citations

  1. Neese,F.
     Software update: the ORCA program system, version 5.0
     WIRES Comput. Molec. Sci., 2022 12(1)e1606
     doi.org/10.1002/wcms.1606

List of papers to cite with high priority. The work reported in these papers was absolutely
necessary for this run to complete.
Our perspective: the developers of density functionals and basis sets usually get cited in chemistry papers
Good! But without the algorithms to do something with them, the functionals or basis sets would not do anything.
Hence, in our opinion, the algorithm design and method developments papers are equally worthy of getting cited

  1. Neese,F.
     An improvement of the resolution of the identity approximation for the formation of the Coulomb matrix
     J. Comp. Chem., 2003 24(14)1740-1747
     doi.org/10.1002/jcc.10318
  2. Neese,F.; Wennmohs,F.; Hansen,A.; Becker,U.
     Efficient, approximate and parallel Hartree-Fock and hybrid DFT calculations. A 'chain-of-spheres' algorithm for the Hartree-Fock exchange
     Chem. Phys., 2009 356(1-3)98-109
     doi.org/10.1016/j.chemphys.2008.10.036
  3. Helmich-Paris,B.; de Souza,B.; Neese,F.; Izsák,R.
     An improved chain of spheres for exchange algorithm
     J. Chem. Phys., 2021 155 104109
     doi.org/doi: 10.1063/5.0058766.
  4. Neese,F.
     The SHARK Integral Generation and Digestion System
     J. Comp. Chem., 2022  1-16
     doi.org/10.1002/jcc.26942
  5. Grimme,S.; Antony,J.; Ehrlich,S.; Krieg,H.
     A consistent and accurate ab initio parametrization of density functional dispersion correction (DFT-D) for the 94 elements H-Pu
     J. Chem. Phys., 2010 132 154104-XXXX
     doi.org/10.1063/1.3382344
  6. Grimme,S.; Ehrlich,S.; Goerigk,L.
     Effect of the damping function in dispersion corrected density functional theory
     J. Comput. Chem., 2011 32(7)1456-1465
     doi.org/10.1002/jcc.21759

List of suggested additional citations. These are papers that are important in the 'surrounding' of 
of this run, or papers that preceded the highly important papers. If you like your results we are grateful for a citation.

  1. Izsak,R.; Neese,F.
     An overlap fitted chain of spheres exchange method
     J. Chem. Phys., 2011 135 144105
     doi.org/10.1063/1.3646921
  2. Izsak,R.; Hansen,A.; Neese,F.
     The resolution of identity and chain of spheres approximations for the LPNO-CCSD singles Fock term
     Molec. Phys., 2012 110 2413-2417
     doi.org/10.1080/00268976.2012.687466
  3. Neese,F.
     The ORCA program system
     WIRES Comput. Molec. Sci., 2012 2(1)73-78
     doi.org/10.1002/wcms.81
  4. Izsak,R.; Neese,F.; Klopper,W.
     Robust fitting techniques in the chain of spheres approximation to the Fock exchange: The role of the complementary space
     J. Chem. Phys., 2013 139 
     doi.org/10.1063/1.4819264
  5. Neese,F.
     Software update: the ORCA program system, version 4.0
     WIRES Comput. Molec. Sci., 2018 8(1)1-6
     doi.org/10.1002/wcms.1327
  6. Neese,F.; Wennmohs,F.; Becker,U.; Riplinger,C.
     The ORCA quantum chemistry program package
     J. Chem. Phys., 2020 152 Art. No. L224108
     doi.org/10.1063/5.0004608

List of optional additional citations

  1. Neese,F.
     Approximate second-order SCF convergence for spin unrestricted wavefunctions
     Chem. Phys. Lett., 2000 325(1-3)93-98
     doi.org/10.1016/s0009-2614(00)00662-x

Timings for individual modules:

Sum of individual times          ...      419.812 sec (=   6.997 min)
Startup calculation              ...       25.085 sec (=   0.418 min)   6.0 %
SCF iterations                   ...      373.172 sec (=   6.220 min)  88.9 %
Property calculations            ...        2.089 sec (=   0.035 min)   0.5 %
SCF Gradient evaluation          ...       18.595 sec (=   0.310 min)   4.4 %
Geometry relaxation              ...        0.870 sec (=   0.015 min)   0.2 %
                             ****ORCA TERMINATED NORMALLY****
TOTAL RUN TIME: 0 days 0 hours 7 minutes 31 seconds 545 msec
