
                                 *****************
                                 * O   R   C   A *
                                 *****************

                                            #,                                       
                                            ###                                      
                                            ####                                     
                                            #####                                    
                                            ######                                   
                                           ########,                                 
                                     ,,################,,,,,                         
                               ,,#################################,,                 
                          ,,##########################################,,             
                       ,#########################################, ''#####,          
                    ,#############################################,,   '####,        
                  ,##################################################,,,,####,       
                ,###########''''           ''''###############################       
              ,#####''   ,,,,##########,,,,          '''####'''          '####       
            ,##' ,,,,###########################,,,                        '##       
           ' ,,###''''                  '''############,,,                           
         ,,##''                                '''############,,,,        ,,,,,,###''
      ,#''                                            '''#######################'''  
     '                                                          ''''####''''         
             ,#######,   #######,   ,#######,      ##                                
            ,#'     '#,  ##    ##  ,#'     '#,    #''#        ,####,   ,####,        
            ##       ##  ##   ,#'  ##            #'  '#       #'       #'  '#        
            ##       ##  #######   ##           ,######,      #####,   #    #        
            '#,     ,#'  ##    ##  '#,     ,#' ,#      #,     #,   #   #,  ,#        
             '#######'   ##     ##  '#######'  #'      '#     '####' # '####'        



                #########################################################
                #                        -***-                          #
                #          Department of theory and spectroscopy        #
                #                                                       #
                #                      Frank Neese                      #
                #                                                       #
                #     Directorship, Architecture, Infrastructure        #
                #                    SHARK, DRIVERS                     #
                #        Core code/Algorithms in most modules           #
                #                                                       #
                #        Max Planck Institute fuer Kohlenforschung      #
                #                Kaiser Wilhelm Platz 1                 #
                #                 D-45470 Muelheim/Ruhr                 #
                #                      Germany                          #
                #                                                       #
                #                  All rights reserved                  #
                #                        -***-                          #
                #########################################################


                         Program Version 6.0.0  -   RELEASE  -


 With contributions from (in alphabetic order):
   Daniel Aravena         : Magnetic Suceptibility
   Michael Atanasov       : Ab Initio Ligand Field Theory (pilot matlab implementation)
   Alexander A. Auer      : GIAO ZORA, VPT2 properties, NMR spectrum
   Ute Becker             : All parallelization in ORCA, NUMFREQ, NUMCALC
   Giovanni Bistoni       : ED, misc. LED, open-shell LED, HFLD
   Martin Brehm           : Molecular dynamics
   Dmytro Bykov           : pre 5.0 version of the SCF Hessian
   Marcos Casanova-Páez   : Triplet and SCS-CIS(D). UHF-(DLPNO)-IP/EA/STEOM-CCSD. UHF-CVS-IP/STEOM-CCSD
   Vijay G. Chilkuri      : MRCI spin determinant printing, contributions to CSF-ICE
   Pauline Colinet        : FMM embedding
   Dipayan Datta          : RHF DLPNO-CCSD density
   Achintya Kumar Dutta   : EOM-CC, STEOM-CC
   Nicolas Foglia         : Exact transition moments, OPA infrastructure, MCD improvements
   Dmitry Ganyushin       : Spin-Orbit,Spin-Spin,Magnetic field MRCI
   Miquel Garcia          : C-PCM and meta-GGA Hessian, CCSD/C-PCM, Gaussian charge scheme
   Tiago L. C. Gouveia    : GS-ROHF, GS-ROCIS
   Yang Guo               : DLPNO-NEVPT2, F12-NEVPT2, CIM, IAO-localization
   Andreas Hansen         : Spin unrestricted coupled pair/coupled cluster methods
   Ingolf Harden          : AUTO-CI MPn and infrastructure 
   Benjamin Helmich-Paris : MC-RPA, TRAH-(SCF,CASSCF), AVAS, COSX integrals, SCF dyn. polar.
   Lee Huntington         : MR-EOM, pCC
   Robert Izsak           : Overlap fitted RIJCOSX, COSX-SCS-MP3, EOM
   Riya Kayal             : Wick's Theorem for AUTO-CI, AUTO-CI UHF-CCSDT
   Emily Kempfer          : AUTO-CI, RHF CISDT and CCSDT
   Christian Kollmar      : KDIIS, OOCD, Brueckner-CCSD(T), CCSD density, CASPT2, CASPT2-K, improved NEVPT2
   Axel Koslowski         : Symmetry handling
   Simone Kossmann        : Meta GGA functionals, TD-DFT gradient, OOMP2, (MP2 Hessian; deprecated post 5.0)
   Lucas Lang             : DCDCAS
   Marvin Lechner         : AUTO-CI (C++ implementation), FIC-MRCC
   Spencer Leger          : CASSCF response
   Dagmar Lenk            : GEPOL surface, SMD, ORCA-2-JSON
   Dimitrios Liakos       : Extrapolation schemes; Compound Job, initial MDCI parallelization
   Dimitrios Manganas     : Further ROCIS development; embedding schemes. LFT, Crystal Embedding
   Dimitrios Pantazis     : SARC Basis sets
   Anastasios Papadopoulos: AUTO-CI, single reference methods and gradients
   Taras Petrenko         : pre 6.0 DFT Hessian and TD-DFT gradient, (ASA, deprecated), ECA, 1-Electron XAS/XES, NRVS
   Peter Pinski           : DLPNO-MP2, DLPNO-MP2 Gradient
   Christoph Reimann      : Effective Core Potentials
   Marius Retegan         : Local ZFS, SOC
   Christoph Riplinger    : Optimizer, TS searches, QM/MM, DLPNO-CCSD(T), (RO)-DLPNO pert. Triples
   Michael Roemelt        : Original ROCIS implementation
   Masaaki Saitow         : Open-shell DLPNO-CCSD energy and density
   Barbara Sandhoefer     : DKH picture change effects
   Kantharuban Sivalingam : CASSCF convergence/infrastructure, NEVPT2 and variants, FIC-MRCI
   Bernardo de Souza      : ESD, SOC TD-DFT
   Georgi Stoychev        : AutoAux, RI-MP2 NMR, DLPNO-MP2 response, X2C
   Van Anh Tran           : RI-MP2 g-tensors
   Willem Van den Heuvel  : Paramagnetic NMR
   Zikuan Wang            : NOTCH, Electric field optimization 
   Frank Wennmohs         : Technical directorship and infrastructure
   Hang Xu                : AUTO-CI-Response properties 


 We gratefully acknowledge several colleagues who have allowed us to
 interface, adapt or use parts of their codes:
   Stefan Grimme, W. Hujo, H. Kruse, P. Pracht,  : VdW corrections, initial TS optimization,
                  C. Bannwarth, S. Ehlert,         DFT functionals, gCP, sTDA/sTD-DF
                  L. Wittmann, M. Mueller
   Ed Valeev, F. Pavosevic, A. Kumar             : LibInt (2-el integral package), F12 methods
   Garnet Chan, S. Sharma, J. Yang, R. Olivares  : DMRG
   Ulf Ekstrom                                   : XCFun DFT Library
   Mihaly Kallay                                 : mrcc  (arbitrary order and MRCC methods)
   Frank Weinhold                                : gennbo (NPA and NBO analysis)
   Simon Mueller                                 : openCOSMO-RS
   Christopher J. Cramer and Donald G. Truhlar   : smd solvation model
   Lars Goerigk                                  : TD-DFT with DH, B97 family of functionals
   V. Asgeirsson, H. Jonsson                     : NEB implementation
   FAccTs GmbH                                   : IRC, NEB, NEB-TS, DLPNO-Multilevel, CI-OPT
                                                   MM, QMMM, 2- and 3-layer-ONIOM, Crystal-QMMM,
                                                   LR-CPCM, SF, NACMEs, symmetry and pop. for TD-DFT,
                                                   nearIR, NL-DFT gradient (VV10), updates on ESD,
                                                   ML-optimized integration grids, MBIS, APM,
                                                   GOAT, DOCKER, SOLVATOR, interface openCOSMO-RS
   S Lehtola, MJT Oliveira, MAL Marques          : LibXC Library
   Liviu Ungur et al                             : ANISO software


 Your calculation uses the libint2 library for the computation of 2-el integrals
 For citations please refer to: http://libint.valeyev.net

 Your ORCA version has been built with support for libXC version: 6.2.2
 For citations please refer to: https://libxc.gitlab.io

 This ORCA versions uses:
   CBLAS   interface :  Fast vector & matrix operations
   LAPACKE interface :  Fast linear algebra routines
   SCALAPACK package :  Parallel linear algebra routines
   Shared memory     :  Shared parallel matrices
   BLAS/LAPACK       :  OpenBLAS 0.3.27  USE64BITINT DYNAMIC_ARCH NO_AFFINITY Sandybridge SINGLE_THREADED
        Core in use  :  Sandybridge
   Copyright (c) 2011-2014, The OpenBLAS Project


NOTE: MaxCore=3500 MB was set to SCF,MP2,MDCI,CIPSI,MRCI and CIS
      => If you want to overwrite this, your respective input block should be placed after the MaxCore statement
Your calculation utilizes the atom-pairwise dispersion correction
with the Becke-Johnson damping scheme (D3BJ)


Warning: RI is on but no J-basis has been assigned. Assigning Def2/J (nothing to worry about!)
================================================================================

----- Orbital basis set information -----
Your calculation utilizes the basis: def2-TZVP
   F. Weigend and R. Ahlrichs, Phys. Chem. Chem. Phys. 7, 3297 (2005).

----- AuxJ basis set information -----
Your calculation utilizes the auxiliary basis: def2/J
   F. Weigend, Phys. Chem. Chem. Phys. 8, 1057 (2006).

================================================================================
                                        WARNINGS
                       Please study these warnings very carefully!
================================================================================


================================================================================
                                       INPUT FILE
================================================================================
NAME = CS_PdOAc_010_sp_01.inp
|  1> !TPSSh def2-TZVP d3 TightSCF SlowConv RIJCOSX defgrid2
|  2> 
|  3> %pal
|  4> nprocs 4
|  5> end
|  6> 
|  7> %scf
|  8> MaxIter 1500
|  9> end
| 10> 
| 11> %maxcore 3500
| 12> 
| 13>  
| 14> 
| 15> * xyz 0 1
| 16>   O           0.00022945393406     -0.31300099561065     -0.53165302648926
| 17>   C          -1.12714279750530     -0.76227707252610      0.07958516999907
| 18>   O          -2.21060860168616     -0.28259429224135     -0.09602707607288
| 19>   C          -0.80193349509532     -1.91629277848566      0.97930931412647
| 20>   H          -0.33747088164425     -2.72879620345494      0.39569919685846
| 21>   H          -0.06870158135400     -1.60274631806362      1.74133143466650
| 22>   H          -1.71969982718559     -2.27584634386799      1.46388745359979
| 23>   C          -0.10046244432862      0.74418283549747     -1.39379501186392
| 24>   H          -1.11577961958336      1.13371131171588     -1.51202627486007
| 25>   C           0.97642010734584      1.22159272343404     -2.01191491942361
| 26>   H           1.96792442155445      0.78629382831538     -1.85036187396633
| 27>   H           0.87446090954824      2.06699611628755     -2.69719060557422
| 28> *
| 29> 
| 30>                          ****END OF INPUT****
================================================================================

                       ****************************
                       * Single Point Calculation *
                       ****************************

---------------------------------
CARTESIAN COORDINATES (ANGSTROEM)
---------------------------------
  O      0.000229   -0.313001   -0.531653
  C     -1.127143   -0.762277    0.079585
  O     -2.210609   -0.282594   -0.096027
  C     -0.801933   -1.916293    0.979309
  H     -0.337471   -2.728796    0.395699
  H     -0.068702   -1.602746    1.741331
  H     -1.719700   -2.275846    1.463887
  C     -0.100462    0.744183   -1.393795
  H     -1.115780    1.133711   -1.512026
  C      0.976420    1.221593   -2.011915
  H      1.967924    0.786294   -1.850362
  H      0.874461    2.066996   -2.697191

----------------------------
CARTESIAN COORDINATES (A.U.)
----------------------------
  NO LB      ZA    FRAG     MASS         X           Y           Z
   0 O     8.0000    0    15.999    0.000434   -0.591486   -1.004679
   1 C     6.0000    0    12.011   -2.129991   -1.440495    0.150394
   2 O     8.0000    0    15.999   -4.177445   -0.534026   -0.181465
   3 C     6.0000    0    12.011   -1.515435   -3.621269    1.850626
   4 H     1.0000    0     1.008   -0.637728   -5.156677    0.747763
   5 H     1.0000    0     1.008   -0.129827   -3.028752    3.290640
   6 H     1.0000    0     1.008   -3.249762   -4.300726    2.766346
   7 C     6.0000    0    12.011   -0.189847    1.406302   -2.633891
   8 H     1.0000    0     1.008   -2.108518    2.142404   -2.857316
   9 C     6.0000    0    12.011    1.845167    2.308476   -3.801968
  10 H     1.0000    0     1.008    3.718838    1.485880   -3.496677
  11 H     1.0000    0     1.008    1.652492    3.906057   -5.096952

--------------------------------
INTERNAL COORDINATES (ANGSTROEM)
--------------------------------
 O      0   0   0     0.000000000000     0.00000000     0.00000000
 C      1   0   0     1.358833808621     0.00000000     0.00000000
 O      2   1   0     1.197845307000   123.51036859     0.00000000
 C      2   1   3     1.499005295355   110.15348632   180.04453165
 H      4   2   1     1.102945195310   109.93113177   301.51173830
 H      4   2   1     1.103004140683   109.87934010    59.21100315
 H      4   2   1     1.098357765008   109.60549327   180.32796805
 C      1   2   3     1.367868895062   118.55354611     0.06850961
 H      8   1   2     1.093883006405   114.30946775   359.77120462
 C      8   1   2     1.330288860106   120.70618443   179.77007026
 H     10   8   1     1.094835750093   121.45694713     0.00000000
 H     10   8   1     1.093025773115   119.56271693   179.99028696

---------------------------
INTERNAL COORDINATES (A.U.)
---------------------------
 O      0   0   0     0.000000000000     0.00000000     0.00000000
 C      1   0   0     2.567823759806     0.00000000     0.00000000
 O      2   1   0     2.263599581032   123.51036859     0.00000000
 C      2   1   3     2.832709481518   110.15348632   180.04453165
 H      4   2   1     2.084264359861   109.93113177   301.51173830
 H      4   2   1     2.084375750472   109.87934010    59.21100315
 H      4   2   1     2.075595372931   109.60549327   180.32796805
 C      1   2   3     2.584897598777   118.55354611     0.06850961
 H      8   1   2     2.067139304656   114.30946775   359.77120462
 C      8   1   2     2.513881624607   120.70618443   179.77007026
 H     10   8   1     2.068939729303   121.45694713     0.00000000
 H     10   8   1     2.065519368504   119.56271693   179.99028696

---------------------
BASIS SET INFORMATION
---------------------
There are 3 groups of distinct atoms

 Group   1 Type O   : 11s6p2d1f contracted to 5s3p2d1f pattern {62111/411/11/1}
 Group   2 Type C   : 11s6p2d1f contracted to 5s3p2d1f pattern {62111/411/11/1}
 Group   3 Type H   : 5s1p contracted to 3s1p pattern {311/1}

Atom   0O    basis set group =>   1
Atom   1C    basis set group =>   2
Atom   2O    basis set group =>   1
Atom   3C    basis set group =>   2
Atom   4H    basis set group =>   3
Atom   5H    basis set group =>   3
Atom   6H    basis set group =>   3
Atom   7C    basis set group =>   2
Atom   8H    basis set group =>   3
Atom   9C    basis set group =>   2
Atom  10H    basis set group =>   3
Atom  11H    basis set group =>   3
---------------------------------
AUXILIARY/J BASIS SET INFORMATION
---------------------------------
There are 3 groups of distinct atoms

 Group   1 Type O   : 12s5p4d2f1g contracted to 6s4p3d1f1g pattern {711111/2111/211/2/1}
 Group   2 Type C   : 12s5p4d2f1g contracted to 6s4p3d1f1g pattern {711111/2111/211/2/1}
 Group   3 Type H   : 5s2p1d contracted to 3s1p1d pattern {311/2/1}

Atom   0O    basis set group =>   1
Atom   1C    basis set group =>   2
Atom   2O    basis set group =>   1
Atom   3C    basis set group =>   2
Atom   4H    basis set group =>   3
Atom   5H    basis set group =>   3
Atom   6H    basis set group =>   3
Atom   7C    basis set group =>   2
Atom   8H    basis set group =>   3
Atom   9C    basis set group =>   2
Atom  10H    basis set group =>   3
Atom  11H    basis set group =>   3


           ************************************************************
           *        Program running with 4 parallel MPI-processes     *
           *              working on a common directory               *
           ************************************************************
------------------------------------------------------------------------------
                             ORCA STARTUP CALCULATIONS
                           -- RI-GTO INTEGRALS CHOSEN --
------------------------------------------------------------------------------
------------------------------------------------------------------------------
                   ___                                                        
                  /   \      - P O W E R E D   B Y -                         
                 /     \                                                     
                 |  |  |   _    _      __       _____    __    __             
                 |  |  |  | |  | |    /  \     |  _  \  |  |  /  |          
                  \  \/   | |  | |   /    \    | | | |  |  | /  /          
                 / \  \   | |__| |  /  /\  \   | |_| |  |  |/  /          
                |  |  |   |  __  | /  /__\  \  |    /   |      \           
                |  |  |   | |  | | |   __   |  |    \   |  |\   \          
                \     /   | |  | | |  |  |  |  | |\  \  |  | \   \       
                 \___/    |_|  |_| |__|  |__|  |_| \__\ |__|  \__/        
                                                                              
                      - O R C A' S   B I G   F R I E N D -                    
                                      &                                       
                       - I N T E G R A L  F E E D E R -                       
                                                                              
 v1 FN, 2020, v2 2021, v3 2022-2024                                           
------------------------------------------------------------------------------


----------------------
SHARK INTEGRAL PACKAGE
----------------------

Number of atoms                             ...     12
Number of basis functions                   ...    222
Number of shells                            ...     90
Maximum angular momentum                    ...      3
Integral batch strategy                     ... SHARK/LIBINT Hybrid
RI-J (if used) integral strategy            ... SPLIT-RIJ (Revised 2003 algorithm where possible)
Printlevel                                  ...      1
Contraction scheme used                     ... SEGMENTED contraction
Prescreening option                         ... SCHWARTZ
   Thresh                                   ... 2.500e-11
   Tcut                                     ... 2.500e-12
   Tpresel                                  ... 2.500e-12 
Coulomb Range Separation                    ... NOT USED
Exchange Range Separation                   ... NOT USED
Multipole approximations                    ... NOT USED
Finite Nucleus Model                        ... NOT USED
CABS basis                                  ... NOT available
Auxiliary Coulomb fitting basis             ... AVAILABLE
   # of basis functions in Aux-J            ...    360
   # of shells in Aux-J                     ...    120
   Maximum angular momentum in Aux-J        ...      4
Auxiliary J/K fitting basis                 ... NOT available
Auxiliary Correlation fitting basis         ... NOT available
Auxiliary 'external' fitting basis          ... NOT available

Checking pre-screening integrals            ... done (  0.0 sec) Dimension = 90
Check shell pair data                       ... done (  0.0 sec)
Shell pair information
Shell pair cut-off parameter TPreSel        ...   2.5e-12
Total number of shell pairs                 ...      4095
Shell pairs after pre-screening             ...      3773
Total number of primitive shell pairs       ...     12396
Primitive shell pairs kept                  ...      8799
          la=0 lb=0:   1046 shell pairs
          la=1 lb=0:   1065 shell pairs
          la=1 lb=1:    285 shell pairs
          la=2 lb=0:    530 shell pairs
          la=2 lb=1:    275 shell pairs
          la=2 lb=2:     76 shell pairs
          la=3 lb=0:    266 shell pairs
          la=3 lb=1:    140 shell pairs
          la=3 lb=2:     69 shell pairs
          la=3 lb=3:     21 shell pairs

Calculating one electron integrals          ... done (  0.0 sec)
Calculating RI/J V-Matrix + Cholesky decomp.... done (  0.0 sec)
Calculating Nuclear repulsion               ... done (  0.0 sec) ENN=    226.614215095698 Eh

Diagonalization of the overlap matrix:
Smallest eigenvalue                        ... 1.452e-04
Time for diagonalization                   ...    0.013 sec
Threshold for overlap eigenvalues          ... 1.000e-07
Number of eigenvalues below threshold      ... 0
Time for construction of square roots      ...    0.016 sec
Total time needed                          ...    0.049 sec

-------------------
DFT GRID GENERATION
-------------------

General Integration Accuracy     IntAcc      ... 4.388
Radial Grid Type                 RadialGrid  ... OptM3 with GC (2021)
Angular Grid (max. ang.)         AngularGrid ... 4 (Lebedev-302)
Angular grid pruning method      GridPruning ... 4 (adaptive)
Weight generation scheme         WeightScheme... mBecke (2022)
Basis function cutoff            BFCut       ... 1.0000e-11
Integration weight cutoff        WCut        ... 1.0000e-14
Partially contracted basis set               ... off
Rotationally invariant grid construction     ... off
Angular grids for H and He will be reduced by one unit

Total number of grid points                  ...    55979
Total number of batches                      ...      880
Average number of points per batch           ...       63
Average number of grid points per atom       ...     4665

--------------------
COSX GRID GENERATION
--------------------

GRIDX 1
-------
General Integration Accuracy     IntAcc      ... 3.816
Radial Grid Type                 RadialGrid  ... OptM3 with GC (2021)
Angular Grid (max. ang.)         AngularGrid ... 1 (Lebedev-50)
Angular grid pruning method      GridPruning ... 4 (adaptive)
Weight generation scheme         WeightScheme... mBecke (2022)
Basis function cutoff            BFCut       ... 1.0000e-11
Integration weight cutoff        WCut        ... 1.0000e-14
Partially contracted basis set               ... on
Rotationally invariant grid construction     ... off
Angular grids for H and He will be reduced by one unit

Total number of grid points                  ...     7168
Total number of batches                      ...       64
Average number of points per batch           ...      112
Average number of grid points per atom       ...      597
UseSFitting                                  ... on

GRIDX 2
-------
General Integration Accuracy     IntAcc      ... 4.020
Radial Grid Type                 RadialGrid  ... OptM3 with GC (2021)
Angular Grid (max. ang.)         AngularGrid ... 2 (Lebedev-110)
Angular grid pruning method      GridPruning ... 4 (adaptive)
Weight generation scheme         WeightScheme... mBecke (2022)
Basis function cutoff            BFCut       ... 1.0000e-11
Integration weight cutoff        WCut        ... 1.0000e-14
Partially contracted basis set               ... on
Rotationally invariant grid construction     ... off
Angular grids for H and He will be reduced by one unit

Total number of grid points                  ...    15718
Total number of batches                      ...      129
Average number of points per batch           ...      121
Average number of grid points per atom       ...     1310
UseSFitting                                  ... on

GRIDX 3
-------
General Integration Accuracy     IntAcc      ... 4.338
Radial Grid Type                 RadialGrid  ... OptM3 with GC (2021)
Angular Grid (max. ang.)         AngularGrid ... 3 (Lebedev-194)
Angular grid pruning method      GridPruning ... 4 (adaptive)
Weight generation scheme         WeightScheme... mBecke (2022)
Basis function cutoff            BFCut       ... 1.0000e-11
Integration weight cutoff        WCut        ... 1.0000e-14
Partially contracted basis set               ... on
Rotationally invariant grid construction     ... off
Angular grids for H and He will be reduced by one unit

Total number of grid points                  ...    34625
Total number of batches                      ...      275
Average number of points per batch           ...      125
Average number of grid points per atom       ...     2885
UseSFitting                                  ... on
Initializing property integral containers    ... done (  0.0 sec)

SHARK setup successfully completed in   1.8 seconds

Maximum memory used throughout the entire STARTUP-calculation: 20.5 MB


           ************************************************************
           *        Program running with 4 parallel MPI-processes     *
           *              working on a common directory               *
           ************************************************************
-------------------------------------------------------------------------------
                                 ORCA GUESS
                   Start orbitals & Density for SCF / CASSCF
-------------------------------------------------------------------------------

------------
SCF SETTINGS
------------
Hamiltonian:
 Density Functional     Method          .... DFT(GTOs)
 Exchange Functional    Exchange        .... TPSS
 Correlation Functional Correlation     .... TPSS
 LDA part of GGA corr.  LDAOpt          .... PW91-LDA
 Gradients option       PostSCFGGA      .... off
 Hybrid DFT is turned on
   Fraction HF Exchange ScalHFX         ....  0.100000
   Scaling of DF-GGA-X  ScalDFX         ....  0.900000
   Scaling of DF-GGA-C  ScalDFC         ....  1.000000
   Scaling of DF-LDA-C  ScalLDAC        ....  1.000000
   Perturbative correction              ....  0.000000
   NL short-range parameter             ....  5.200000
 RI-approximation to the Coulomb term is turned on
   Number of AuxJ basis functions       .... 360
   RIJ-COSX (HFX calculated with COS-X)).... on


General Settings:
 Integral files         IntName         .... CS_PdOAc_010_sp_01
 Hartree-Fock type      HFTyp           .... RHF
 Total Charge           Charge          ....    0
 Multiplicity           Mult            ....    1
 Number of Electrons    NEL             ....   46
 Basis Dimension        Dim             ....  222
 Nuclear Repulsion      ENuc            ....    226.6142150957 Eh

Convergence Acceleration:
 AO-DIIS                CNVDIIS         .... on
   Start iteration      DIISMaxIt       ....     0
   Startup error        DIISStart       ....  0.200000
   # of expansion vecs  DIISMaxEq       ....     5
   Bias factor          DIISBfac        ....   1.050
   Max. coefficient     DIISMaxC        ....  10.000
 MO-DIIS                CNVKDIIS        .... off
 Trust-Rad. Augm. Hess. CNVTRAH         .... auto
   Auto Start mean grad. ratio tolernc. ....  1.125000
   Auto Start start iteration           ....    50
   Auto Start num. interpolation iter.  ....    10
   Max. Number of Micro iterations      ....    24
   Max. Number of Macro iterations      .... Maxiter - #DIIS iter
   Number of Davidson start vectors     ....     2
   Converg. threshold    (grad. norm)   ....   1.000e-05
   Grad. Scal. Fac. for Micro threshold ....   0.100
   Minimum threshold for Micro iter.    ....   1.000e-02
   NR start threshold (gradient norm)   ....   1.000e-04
   Initial trust radius                 ....   0.400
   Minimum AH scaling param. (alpha)    ....   1.000
   Maximum AH scaling param. (alpha)    .... 1000.000
   Quad. conv. algorithm                .... NR
   White noise on init. David. guess    .... on
   Maximum white noise                  ....   0.010
   Pseudo random numbers                .... off
   Inactive MOs                         .... canonical
   Orbital update algorithm             .... Taylor
   Preconditioner                       .... Diag
   Full preconditioner red. dimension   ....   250
 SOSCF                  CNVSOSCF        .... on
   Start iteration      SOSCFMaxIt      ....   150
   Startup grad/error   SOSCFStart      ....  0.001000
   Hessian update       SOSCFHessUp     .... L-BFGS
 Level Shifting         CNVShift        .... on
   Level shift para.    LevelShift      ....    0.2500
   Turn off err/grad.   ShiftErr        ....    0.0000
 Zerner damping         CNVZerner       .... off
 Static damping         CNVDamp         .... on
   Fraction old density DampFac         ....    0.8500
   Max. Damping (<1)    DampMax         ....    0.9800
   Min. Damping (>=0)   DampMin         ....    0.0000
   Turn off err/grad.   DampErr         ....    0.0300

SCF Procedure:
 Maximum # iterations   MaxIter         ....  1500
 SCF integral mode      SCFMode         .... Direct
   Integral package                     .... SHARK and LIBINT hybrid scheme
 Reset frequency        DirectResetFreq ....    20
 Integral Threshold     Thresh          ....  2.500e-11 Eh
 Primitive CutOff       TCut            ....  2.500e-12 Eh

Convergence Tolerance:
 Convergence Check Mode ConvCheckMode   .... Total+1el-Energy
 Convergence forced     ConvForced      .... 0
 Energy Change          TolE            ....  1.000e-08 Eh
 1-El. energy change                    ....  1.000e-05 Eh
 Orbital Gradient       TolG            ....  1.000e-05
 Orbital Rotation angle TolX            ....  1.000e-05
 DIIS Error             TolErr          ....  5.000e-07

------------------------------
INITIAL GUESS: MODEL POTENTIAL
------------------------------
Loading Hartree-Fock densities                     ... done
Calculating cut-offs                               ... done
Initializing the effective Hamiltonian             ... done
Setting up the integral package (SHARK)            ... done
Starting the Coulomb interaction                   ... done (   0.1 sec)
Making the grid                                    ... done (   0.2 sec)
Mapping shells                                     ... done
Starting the XC term evaluation                    ... done (   0.1 sec)
  promolecular density results
     # of electrons  =     45.997295578
     EX              =    -38.499847088
     EC              =     -1.512438439
     EX+EC           =    -40.012285527
Transforming the Hamiltonian                       ... done (   0.0 sec)
Diagonalizing the Hamiltonian                      ... done (   0.0 sec)
Back transforming the eigenvectors                 ... done (   0.0 sec)
Now organizing SCF variables                       ... done
                      ------------------
                      INITIAL GUESS DONE (   0.6 sec)
                      ------------------
             **** ENERGY FILE WAS UPDATED (CS_PdOAc_010_sp_01.en.tmp) ****
Finished Guess after   1.1 sec
Maximum memory used throughout the entire GUESS-calculation: 13.2 MB


           ************************************************************
           *        Program running with 4 parallel MPI-processes     *
           *              working on a common directory               *
           ************************************************************

-------------------------------------------------------------------------------------------
                                      ORCA LEAN-SCF
                              memory conserving SCF solver
-------------------------------------------------------------------------------------------

----------------------------------------D-I-I-S--------------------------------------------
Iteration    Energy (Eh)           Delta-E    RMSDP     MaxDP     DIISErr   Damp  Time(sec)
-------------------------------------------------------------------------------------------
               ***  Starting incremental Fock matrix formation  ***
    1    -306.4036321037661992     0.00e+00  8.46e-04  2.63e-02  2.64e-01  0.850   2.8
    2    -306.4626760067840223    -5.90e-02  8.89e-04  2.40e-02  1.78e-01  0.850   2.1
                               ***Turning on AO-DIIS***
    3    -306.4976831436009661    -3.50e-02  4.48e-04  1.21e-02  1.04e-01  0.850   2.2
    4    -306.5190892766149773    -2.14e-02  2.66e-04  6.37e-03  8.29e-02  0.850   2.1
    5    -306.5342088086968033    -1.51e-02  1.85e-04  3.82e-03  7.19e-02  0.850   2.9
    6    -306.5460767031777323    -1.19e-02  1.47e-04  3.68e-03  6.20e-02  0.850   2.0
    7    -306.5558486476342068    -9.77e-03  1.26e-04  3.60e-03  5.15e-02  0.850   2.0
    8    -306.5639623222966748    -8.11e-03  1.04e-04  2.47e-03  4.11e-02  0.850   2.9
    9    -306.5706124586102987    -6.65e-03  8.62e-05  2.01e-03  3.42e-02  0.850   2.0
   10    -306.5760960130342028    -5.48e-03  7.25e-05  1.62e-03  2.93e-02  0.850   2.0
   11    -306.5806613560789629    -4.57e-03  4.10e-04  9.91e-03  2.50e-02  0.000   1.9
   12    -306.6050376635494104    -2.44e-02  3.69e-05  1.36e-03  3.20e-03  0.000   2.0
   13    -306.6050536056014835    -1.59e-05  1.34e-05  3.93e-04  1.14e-03  0.000   2.0
                              *** Initializing SOSCF ***
---------------------------------------S-O-S-C-F--------------------------------------
Iteration    Energy (Eh)           Delta-E    RMSDP     MaxDP     MaxGrad    Time(sec)
--------------------------------------------------------------------------------------
   14    -306.6050583329649726    -4.73e-06  3.63e-06  6.86e-05  9.90e-05     2.0
               *** Restarting incremental Fock matrix formation ***
   15    -306.6050579736827331     3.59e-07  4.61e-06  9.52e-05  5.78e-05     2.6
   16    -306.6050578842447294     8.94e-08  2.20e-06  6.14e-05  1.23e-04     2.1
   17    -306.6050580110206738    -1.27e-07  7.18e-07  2.12e-05  8.22e-06     2.0
   18    -306.6050580065324311     4.49e-09  4.86e-07  1.36e-05  1.80e-05     2.0
                 **** Energy Check signals convergence ****

               *****************************************************
               *                     SUCCESS                       *
               *           SCF CONVERGED AFTER  18 CYCLES          *
               *****************************************************

Recomputing exchange energy using gridx3       ... done (    2.757 sec)
Old exchange energy                            :     -3.930985173 Eh
New exchange energy                            :     -3.930989831 Eh
Exchange energy change after final integration :     -0.000004658 Eh
Total energy after final integration           :   -306.605062665 Eh
             **** ENERGY FILE WAS UPDATED (CS_PdOAc_010_sp_01.en.tmp) ****

----------------
TOTAL SCF ENERGY
----------------

Total Energy       :       -306.60506266475926 Eh           -8343.14791 eV

Components:
Nuclear Repulsion  :        226.61421509569800 Eh            6166.48629 eV
Electronic Energy  :       -533.21927310223043 Eh          -14509.63408 eV
One Electron Energy:       -865.19821482346958 Eh          -23543.24034 eV
Two Electron Energy:        331.97894172123915 Eh            9033.60626 eV

Virial components:
Potential Energy   :       -611.88282174164544 Eh          -16650.17806 eV
Kinetic Energy     :        305.27775907688618 Eh            8307.03015 eV
Virial Ratio       :          2.00434785551324

DFT components:
N(Alpha)           :       23.000008440105 electrons
N(Beta)            :       23.000008440105 electrons
N(Total)           :       46.000016880209 electrons
E(X)               :      -35.696148894406 Eh       
E(C)               :       -1.525785672414 Eh       
E(XC)              :      -37.221934566820 Eh       

---------------
SCF CONVERGENCE
---------------

  Last Energy change         ...   -4.4882e-09  Tolerance :   1.0000e-08
  Last MAX-Density change    ...    1.3570e-05  Tolerance :   1.0000e-07
  Last RMS-Density change    ...    4.8552e-07  Tolerance :   5.0000e-09
  Last DIIS Error            ...    9.8998e-05  Tolerance :   5.0000e-07
  Last Orbital Gradient      ...    1.7958e-05  Tolerance :   1.0000e-05
  Last Orbital Rotation      ...    2.0901e-05  Tolerance :   1.0000e-05


----------------
ORBITAL ENERGIES
----------------

  NO   OCC          E(Eh)            E(eV) 
   0   2.0000     -19.115253      -520.1525 
   1   2.0000     -19.049162      -518.3541 
   2   2.0000     -10.246660      -278.8258 
   3   2.0000     -10.175280      -276.8834 
   4   2.0000     -10.134399      -275.7710 
   5   2.0000     -10.114122      -275.2193 
   6   2.0000      -1.102952       -30.0129 
   7   2.0000      -1.014362       -27.6022 
   8   2.0000      -0.776217       -21.1219 
   9   2.0000      -0.726742       -19.7757 
  10   2.0000      -0.617643       -16.8069 
  11   2.0000      -0.547954       -14.9106 
  12   2.0000      -0.488169       -13.2838 
  13   2.0000      -0.470001       -12.7894 
  14   2.0000      -0.464603       -12.6425 
  15   2.0000      -0.421248       -11.4627 
  16   2.0000      -0.403258       -10.9732 
  17   2.0000      -0.397897       -10.8273 
  18   2.0000      -0.394791       -10.7428 
  19   2.0000      -0.345953        -9.4139 
  20   2.0000      -0.343301        -9.3417 
  21   2.0000      -0.271728        -7.3941 
  22   2.0000      -0.243906        -6.6370 
  23   0.0000      -0.033751        -0.9184 
  24   0.0000       0.013513         0.3677 
  25   0.0000       0.039495         1.0747 
  26   0.0000       0.075555         2.0560 
  27   0.0000       0.088794         2.4162 
  28   0.0000       0.097417         2.6508 
  29   0.0000       0.110880         3.0172 
  30   0.0000       0.117717         3.2032 
  31   0.0000       0.126588         3.4446 
  32   0.0000       0.143591         3.9073 
  33   0.0000       0.175134         4.7656 
*Only the first 10 virtual orbitals were printed.

                    ********************************
                    * MULLIKEN POPULATION ANALYSIS *
                    ********************************

-----------------------
MULLIKEN ATOMIC CHARGES
-----------------------
   0 O :   -0.199046
   1 C :    0.293310
   2 O :   -0.305772
   3 C :   -0.341665
   4 H :    0.138072
   5 H :    0.138025
   6 H :    0.144044
   7 C :   -0.014464
   8 H :    0.141240
   9 C :   -0.257431
  10 H :    0.127456
  11 H :    0.136232
Sum of atomic charges:    0.0000000

--------------------------------
MULLIKEN REDUCED ORBITAL CHARGES
--------------------------------
  0 O s       :     3.749975  s :     3.749975
      pz      :     1.464466  p :     4.406471
      px      :     1.499697
      py      :     1.442309
      dz2     :     0.007071  d :     0.040389
      dxz     :     0.008361
      dyz     :     0.006914
      dx2y2   :     0.009899
      dxy     :     0.008144
      f0      :     0.000265  f :     0.002211
      f+1     :     0.000202
      f-1     :     0.000399
      f+2     :     0.000480
      f-2     :     0.000373
      f+3     :     0.000241
      f-3     :     0.000252

  1 C s       :     3.107830  s :     3.107830
      pz      :     0.782798  p :     2.300983
      px      :     0.706785
      py      :     0.811399
      dz2     :     0.032818  d :     0.273385
      dxz     :     0.074724
      dyz     :     0.024604
      dx2y2   :     0.073476
      dxy     :     0.067762
      f0      :     0.001869  f :     0.024493
      f+1     :     0.003997
      f-1     :     0.001548
      f+2     :     0.002959
      f-2     :     0.004061
      f+3     :     0.006558
      f-3     :     0.003502

  2 O s       :     3.821396  s :     3.821396
      pz      :     1.532061  p :     4.451652
      px      :     1.386600
      py      :     1.532991
      dz2     :     0.002888  d :     0.030731
      dxz     :     0.008791
      dyz     :     0.001686
      dx2y2   :     0.008636
      dxy     :     0.008730
      f0      :     0.000229  f :     0.001993
      f+1     :     0.000249
      f-1     :     0.000062
      f+2     :     0.000230
      f-2     :     0.000222
      f+3     :     0.000593
      f-3     :     0.000408

  3 C s       :     3.214373  s :     3.214373
      pz      :     1.014217  p :     3.071511
      px      :     1.074204
      py      :     0.983090
      dz2     :     0.006164  d :     0.051387
      dxz     :     0.013846
      dyz     :     0.011753
      dx2y2   :     0.008463
      dxy     :     0.011161
      f0      :     0.000363  f :     0.004394
      f+1     :     0.000295
      f-1     :     0.000551
      f+2     :     0.001042
      f-2     :     0.001219
      f+3     :     0.000446
      f-3     :     0.000478

  4 H s       :     0.842089  s :     0.842089
      pz      :     0.005880  p :     0.019840
      px      :     0.005595
      py      :     0.008364

  5 H s       :     0.842128  s :     0.842128
      pz      :     0.007799  p :     0.019847
      px      :     0.007387
      py      :     0.004662

  6 H s       :     0.836260  s :     0.836260
      pz      :     0.005664  p :     0.019696
      px      :     0.009120
      py      :     0.004912

  7 C s       :     3.218246  s :     3.218246
      pz      :     0.860014  p :     2.658156
      px      :     0.998670
      py      :     0.799472
      dz2     :     0.035387  d :     0.125224
      dxz     :     0.015805
      dyz     :     0.017042
      dx2y2   :     0.031040
      dxy     :     0.025950
      f0      :     0.001012  f :     0.012839
      f+1     :     0.001604
      f-1     :     0.002647
      f+2     :     0.002052
      f-2     :     0.002079
      f+3     :     0.001823
      f-3     :     0.001622

  8 H s       :     0.837798  s :     0.837798
      pz      :     0.003711  p :     0.020962
      px      :     0.012890
      py      :     0.004362

  9 C s       :     3.199895  s :     3.199895
      pz      :     1.020333  p :     3.008382
      px      :     0.965958
      py      :     1.022090
      dz2     :     0.007879  d :     0.043720
      dxz     :     0.006233
      dyz     :     0.007313
      dx2y2   :     0.013319
      dxy     :     0.008977
      f0      :     0.000358  f :     0.005434
      f+1     :     0.001130
      f-1     :     0.000693
      f+2     :     0.001154
      f-2     :     0.000598
      f+3     :     0.000600
      f-3     :     0.000901

 10 H s       :     0.852261  s :     0.852261
      pz      :     0.004440  p :     0.020283
      px      :     0.010510
      py      :     0.005333

 11 H s       :     0.843099  s :     0.843099
      pz      :     0.007906  p :     0.020669
      px      :     0.003435
      py      :     0.009328



                     *******************************
                     * LOEWDIN POPULATION ANALYSIS *
                     *******************************

----------------------
LOEWDIN ATOMIC CHARGES
----------------------
   0 O :    0.311601
   1 C :   -0.496773
   2 O :    0.126069
   3 C :   -0.255616
   4 H :    0.140093
   5 H :    0.140246
   6 H :    0.136281
   7 C :   -0.274285
   8 H :    0.140294
   9 C :   -0.225599
  10 H :    0.126599
  11 H :    0.131091

-------------------------------
LOEWDIN REDUCED ORBITAL CHARGES
-------------------------------
  0 O s       :     3.229517  s :     3.229517
      pz      :     1.419472  p :     4.336032
      px      :     1.497293
      py      :     1.419267
      dz2     :     0.019372  d :     0.115872
      dxz     :     0.023837
      dyz     :     0.022812
      dx2y2   :     0.025829
      dxy     :     0.024021
      f0      :     0.000816  f :     0.006977
      f+1     :     0.000728
      f-1     :     0.000946
      f+2     :     0.001075
      f-2     :     0.001200
      f+3     :     0.001291
      f-3     :     0.000921

  1 C s       :     2.760192  s :     2.760192
      pz      :     0.828281  p :     2.648486
      px      :     0.926291
      py      :     0.893913
      dz2     :     0.116739  d :     0.937391
      dxz     :     0.238239
      dyz     :     0.085222
      dx2y2   :     0.260873
      dxy     :     0.236320
      f0      :     0.013321  f :     0.150704
      f+1     :     0.024997
      f-1     :     0.006927
      f+2     :     0.015458
      f-2     :     0.026572
      f+3     :     0.041895
      f-3     :     0.021535

  2 O s       :     3.398197  s :     3.398197
      pz      :     1.427335  p :     4.400102
      px      :     1.507232
      py      :     1.465535
      dz2     :     0.008365  d :     0.069187
      dxz     :     0.015013
      dyz     :     0.003512
      dx2y2   :     0.021123
      dxy     :     0.021173
      f0      :     0.000617  f :     0.006445
      f+1     :     0.000984
      f-1     :     0.000227
      f+2     :     0.000580
      f-2     :     0.000623
      f+3     :     0.001684
      f-3     :     0.001730

  3 C s       :     2.839575  s :     2.839575
      pz      :     1.051804  p :     3.163315
      px      :     1.069077
      py      :     1.042434
      dz2     :     0.023206  d :     0.228176
      dxz     :     0.059420
      dyz     :     0.061041
      dx2y2   :     0.038453
      dxy     :     0.046056
      f0      :     0.003881  f :     0.024550
      f+1     :     0.001807
      f-1     :     0.004132
      f+2     :     0.003687
      f-2     :     0.004086
      f+3     :     0.003239
      f-3     :     0.003719

  4 H s       :     0.800126  s :     0.800126
      pz      :     0.019018  p :     0.059781
      px      :     0.016757
      py      :     0.024006

  5 H s       :     0.799976  s :     0.799976
      pz      :     0.022767  p :     0.059778
      px      :     0.022759
      py      :     0.014251

  6 H s       :     0.804260  s :     0.804260
      pz      :     0.016251  p :     0.059460
      px      :     0.029452
      py      :     0.013756

  7 C s       :     2.811370  s :     2.811370
      pz      :     0.899147  p :     2.858751
      px      :     1.094577
      py      :     0.865027
      dz2     :     0.116038  d :     0.525662
      dxz     :     0.072421
      dyz     :     0.100944
      dx2y2   :     0.127402
      dxy     :     0.108857
      f0      :     0.007906  f :     0.078502
      f+1     :     0.008286
      f-1     :     0.013354
      f+2     :     0.012732
      f-2     :     0.013938
      f+3     :     0.012664
      f-3     :     0.009622

  8 H s       :     0.796792  s :     0.796792
      pz      :     0.011129  p :     0.062914
      px      :     0.038023
      py      :     0.013762

  9 C s       :     2.866283  s :     2.866283
      pz      :     1.018406  p :     3.111128
      px      :     1.076042
      py      :     1.016680
      dz2     :     0.030726  d :     0.220310
      dxz     :     0.037206
      dyz     :     0.034472
      dx2y2   :     0.072737
      dxy     :     0.045170
      f0      :     0.002576  f :     0.027879
      f+1     :     0.005297
      f-1     :     0.001610
      f+2     :     0.004569
      f-2     :     0.005007
      f+3     :     0.004420
      f-3     :     0.004400

 10 H s       :     0.812569  s :     0.812569
      pz      :     0.013484  p :     0.060832
      px      :     0.030535
      py      :     0.016813

 11 H s       :     0.807986  s :     0.807986
      pz      :     0.022454  p :     0.060923
      px      :     0.011222
      py      :     0.027246



                      *****************************
                      * MAYER POPULATION ANALYSIS *
                      *****************************

  NA   - Mulliken gross atomic population
  ZA   - Total nuclear charge
  QA   - Mulliken gross atomic charge
  VA   - Mayer's total valence
  BVA  - Mayer's bonded valence
  FA   - Mayer's free valence

  ATOM       NA         ZA         QA         VA         BVA        FA
  0 O      8.1990     8.0000    -0.1990     2.1652     2.1652     0.0000
  1 C      5.7067     6.0000     0.2933     4.2140     4.2140     0.0000
  2 O      8.3058     8.0000    -0.3058     2.1753     2.1753     0.0000
  3 C      6.3417     6.0000    -0.3417     3.8672     3.8672    -0.0000
  4 H      0.8619     1.0000     0.1381     0.9749     0.9749     0.0000
  5 H      0.8620     1.0000     0.1380     0.9749     0.9749    -0.0000
  6 H      0.8560     1.0000     0.1440     0.9825     0.9825     0.0000
  7 C      6.0145     6.0000    -0.0145     3.9382     3.9382     0.0000
  8 H      0.8588     1.0000     0.1412     0.9922     0.9922     0.0000
  9 C      6.2574     6.0000    -0.2574     3.8843     3.8843    -0.0000
 10 H      0.8725     1.0000     0.1275     0.9805     0.9805    -0.0000
 11 H      0.8638     1.0000     0.1362     0.9690     0.9690     0.0000

  Mayer bond orders larger than 0.100000
B(  0-O ,  1-C ) :   1.0955 B(  0-O ,  7-C ) :   0.9925 B(  1-C ,  2-O ) :   2.0331 
B(  1-C ,  3-C ) :   1.0209 B(  3-C ,  4-H ) :   0.9422 B(  3-C ,  5-H ) :   0.9419 
B(  3-C ,  6-H ) :   0.9718 B(  7-C ,  8-H ) :   0.9493 B(  7-C ,  9-C ) :   1.9232 
B(  9-C , 10-H ) :   0.9468 B(  9-C , 11-H ) :   0.9475 

-------
TIMINGS
-------

Total SCF time: 0 days 0 hours 0 min 44 sec 

Total time                  ....      44.444 sec
Sum of individual times     ....      42.786 sec  ( 96.3%)

SCF preparation             ....       0.640 sec  (  1.4%)
Fock matrix formation       ....      35.963 sec  ( 80.9%)
  Startup                   ....       0.962 sec  (  2.7% of F)
  Split-RI-J                ....       3.988 sec  ( 11.1% of F)
  Chain of spheres X        ....      18.664 sec  ( 51.9% of F)
  XC integration            ....      10.620 sec  ( 29.5% of F)
    XC Preparation          ....       0.000 sec  (  0.0% of XC)
    Basis function eval.    ....       1.552 sec  ( 14.6% of XC)
    Density eval.           ....       3.116 sec  ( 29.3% of XC)
    XC-Functional eval.     ....       0.673 sec  (  6.3% of XC)
    XC-Potential eval.      ....       3.609 sec  ( 34.0% of XC)
Diagonalization             ....       0.000 sec  (  0.0%)
Density matrix formation    ....       1.693 sec  (  3.8%)
Total Energy calculation    ....       0.732 sec  (  1.6%)
Population analysis         ....       0.207 sec  (  0.5%)
Orbital Transformation      ....       0.183 sec  (  0.4%)
Orbital Orthonormalization  ....       0.000 sec  (  0.0%)
DIIS solution               ....       2.940 sec  (  6.6%)
SOSCF solution              ....       0.428 sec  (  1.0%)
Finished LeanSCF after  44.6 sec

Maximum memory used throughout the entire LEANSCF-calculation: 20.1 MB


-------------------------------------------------------------------------------
                          DFT DISPERSION CORRECTION                            
                                                                               
                              DFTD3 V3.1  Rev 1                                
                          USING Becke-Johnson damping                          
-------------------------------------------------------------------------------
The TPSSH functional is recognized
Active option DFTDOPT                   ...         4   

molecular C6(AA) [au] = 1339.656859 


            DFT-D V3
 parameters
 s6 scaling factor         :     1.0000 
 a1 scaling factor         :     0.4529 
 s8 scaling factor         :     2.2382 
 a2 scaling factor         :     4.6550 
 ad hoc parameters k1-k3   :    16.0000     1.3333    -4.0000 

 Edisp/kcal,au: -5.645379447273  -0.008996483844 
 E6   /kcal   :  -2.779795660 
 E8   /kcal   :  -2.865583787 
 % E8         :  50.759808331 

-------------------------   ----------------
Dispersion correction           -0.008996484
-------------------------   ----------------


-------------------------   --------------------
FINAL SINGLE POINT ENERGY      -306.614059148603
-------------------------   --------------------



           ************************************************************
           *        Program running with 4 parallel MPI-processes     *
           *              working on a common directory               *
           ************************************************************

------------------------------------------------------------------------------
                              ORCA PROPERTY CALCULATIONS
------------------------------------------------------------------------------

GBWName                                 ... CS_PdOAc_010_sp_01.gbw
Number of atoms                         ...     12
Number of basis functions               ...    222
Max core memory                         ...   3500 MB

Electric properties:
Dipole moment                           ... YES
Quadrupole moment                       ...  NO
Static polarizability (Dipole/Dipole)   ...  NO
Static polarizability (Dipole/Quad.)    ...  NO
Static polarizability (Quad./Quad.)     ...  NO
Static polarizability (Velocity)        ...  NO

Atomic electric properties:
Dipole moment                           ...  NO
Quadrupole moment                       ...  NO
Static polarizability                   ...  NO

Choice of electric origin               ... Center of mass
Position of electric origin             ...    -1.062745    -0.455072    -0.893569

General magnetic properties:
Magnetizability                         ...  NO

EPR properties:
g-Tensor (aka g-matrix)                 ...  NO
Zero-Field splitting spin-orbit         ...  NO
Zero-field splitting spin-spin          ...  NO
Hyperfine couplings                     ...  NO (   0 nuclei)
Quadrupole couplings                    ...  NO (   0 nuclei)
Contact density                         ...  NO (   0 nuclei)

NMR properties:
Chemical shifts                         ...  NO (   0 nuclei)
Spin-rotation constants                 ...  NO (   0 nuclei)
Spin-spin couplings                     ...  NO (   0 nuclei,    0 pairs)

Choice of magnetic origin               ... GIAO
Position of magnetic origin             ...     0.000000     0.000000     0.000000

Properties with geometric perturbations:
SCF Hessian                             ...  NO
IR spectrum                             ...  NO
VCD spectrum                            ...  NO
X-ray spectroscopy properties:
SCF XES/XAS/RIXS spectra                ...  NO


-------------
DIPOLE MOMENT
-------------

Method             : SCF
Type of density    : Electron Density
Multiplicity       :   1
Irrep              :   0
Energy             :  -306.6050626647592594 Eh
Relativity type    : 
Basis              : AO
                                X                 Y                 Z
Electronic contribution:     -2.169554017       0.768144993      -0.203264570
Nuclear contribution   :      2.775033881      -1.104516922       0.359780835
                        -----------------------------------------
Total Dipole Moment    :      0.605479864      -0.336371929       0.156516265
                        -----------------------------------------
Magnitude (a.u.)       :      0.710105120
Magnitude (Debye)      :      1.804943773



--------------------
Rotational spectrum 
--------------------
 
Rotational constants in cm-1:             0.314546             0.074915             0.061203 
Rotational constants in MHz :          9429.842278          2245.903647          1834.808631 

Dipole components along the rotational axes: 
x,y,z [a.u.] :    -0.005670     0.710082     0.000292 
x,y,z [Debye]:    -0.014412     1.804886     0.000743 

 

Dipole moment calculation done in   0.1 sec 

Maximum memory used throughout the entire PROP-calculation: 10.4 MB

--------------------------------
SUGGESTED CITATIONS FOR THIS RUN
--------------------------------

Below you find a list of papers that are relevant to this ORCA run
We neither can nor want to force you to cite these papers, but we appreciate if you do
You receive ORCA, which is the product of decades of hard work by many enthusiastic individuals, for free
The only thing we kindly ask in return is that you cite our papers,
We deeply appreciate it, if you show your appreciation for ORCA by not just citing the generic ORCA reference.

Please note that relegating all ORCA citations to the supporting information does *not* help us.
SI sections are not indexed - citations you put there will not count into any citation statistics
But we need these citations in order to attract the funding resources that allow us to do what we are doing

Therefore, if you are a happy ORCA user, please consider citing a few of the papers listed below in the main body of your paper

In addition to the list printed below, the program has created the file CS_PdOAc_010_sp_01.bibtex that contains the list in bibtex format
You can import this file easily into all common literature databanks and citation aid programs


List of essential papers. We consider these as the minimum necessary citations

  1. Neese,F.
     Software update: the ORCA program system, version 5.0
     WIRES Comput. Molec. Sci., 2022 12(1)e1606
     doi.org/10.1002/wcms.1606

List of papers to cite with high priority. The work reported in these papers was absolutely
necessary for this run to complete.
Our perspective: the developers of density functionals and basis sets usually get cited in chemistry papers
Good! But without the algorithms to do something with them, the functionals or basis sets would not do anything.
Hence, in our opinion, the algorithm design and method developments papers are equally worthy of getting cited

  1. Neese,F.
     An improvement of the resolution of the identity approximation for the formation of the Coulomb matrix
     J. Comp. Chem., 2003 24(14)1740-1747
     doi.org/10.1002/jcc.10318
  2. Neese,F.; Wennmohs,F.; Hansen,A.; Becker,U.
     Efficient, approximate and parallel Hartree-Fock and hybrid DFT calculations. A 'chain-of-spheres' algorithm for the Hartree-Fock exchange
     Chem. Phys., 2009 356(1-3)98-109
     doi.org/10.1016/j.chemphys.2008.10.036
  3. Helmich-Paris,B.; de Souza,B.; Neese,F.; Izsák,R.
     An improved chain of spheres for exchange algorithm
     J. Chem. Phys., 2021 155 104109
     doi.org/doi: 10.1063/5.0058766.
  4. Neese,F.
     The SHARK Integral Generation and Digestion System
     J. Comp. Chem., 2022  1-16
     doi.org/10.1002/jcc.26942
  5. Grimme,S.; Antony,J.; Ehrlich,S.; Krieg,H.
     A consistent and accurate ab initio parametrization of density functional dispersion correction (DFT-D) for the 94 elements H-Pu
     J. Chem. Phys., 2010 132 154104-XXXX
     doi.org/10.1063/1.3382344
  6. Grimme,S.; Ehrlich,S.; Goerigk,L.
     Effect of the damping function in dispersion corrected density functional theory
     J. Comput. Chem., 2011 32(7)1456-1465
     doi.org/10.1002/jcc.21759

List of suggested additional citations. These are papers that are important in the 'surrounding' of 
of this run, or papers that preceded the highly important papers. If you like your results we are grateful for a citation.

  1. Izsak,R.; Neese,F.
     An overlap fitted chain of spheres exchange method
     J. Chem. Phys., 2011 135 144105
     doi.org/10.1063/1.3646921
  2. Izsak,R.; Hansen,A.; Neese,F.
     The resolution of identity and chain of spheres approximations for the LPNO-CCSD singles Fock term
     Molec. Phys., 2012 110 2413-2417
     doi.org/10.1080/00268976.2012.687466
  3. Neese,F.
     The ORCA program system
     WIRES Comput. Molec. Sci., 2012 2(1)73-78
     doi.org/10.1002/wcms.81
  4. Izsak,R.; Neese,F.; Klopper,W.
     Robust fitting techniques in the chain of spheres approximation to the Fock exchange: The role of the complementary space
     J. Chem. Phys., 2013 139 
     doi.org/10.1063/1.4819264
  5. Neese,F.
     Software update: the ORCA program system, version 4.0
     WIRES Comput. Molec. Sci., 2018 8(1)1-6
     doi.org/10.1002/wcms.1327
  6. Neese,F.; Wennmohs,F.; Becker,U.; Riplinger,C.
     The ORCA quantum chemistry program package
     J. Chem. Phys., 2020 152 Art. No. L224108
     doi.org/10.1063/5.0004608

List of optional additional citations

  1. Neese,F.
     Approximate second-order SCF convergence for spin unrestricted wavefunctions
     Chem. Phys. Lett., 2000 325(1-3)93-98
     doi.org/10.1016/s0009-2614(00)00662-x

Timings for individual modules:

Sum of individual times          ...       54.309 sec (=   0.905 min)
Startup calculation              ...        4.377 sec (=   0.073 min)   8.1 %
SCF iterations                   ...       48.226 sec (=   0.804 min)  88.8 %
Property calculations            ...        1.706 sec (=   0.028 min)   3.1 %
                             ****ORCA TERMINATED NORMALLY****
TOTAL RUN TIME: 0 days 0 hours 0 minutes 57 seconds 13 msec
