
                                 *****************
                                 * O   R   C   A *
                                 *****************

                                            #,                                       
                                            ###                                      
                                            ####                                     
                                            #####                                    
                                            ######                                   
                                           ########,                                 
                                     ,,################,,,,,                         
                               ,,#################################,,                 
                          ,,##########################################,,             
                       ,#########################################, ''#####,          
                    ,#############################################,,   '####,        
                  ,##################################################,,,,####,       
                ,###########''''           ''''###############################       
              ,#####''   ,,,,##########,,,,          '''####'''          '####       
            ,##' ,,,,###########################,,,                        '##       
           ' ,,###''''                  '''############,,,                           
         ,,##''                                '''############,,,,        ,,,,,,###''
      ,#''                                            '''#######################'''  
     '                                                          ''''####''''         
             ,#######,   #######,   ,#######,      ##                                
            ,#'     '#,  ##    ##  ,#'     '#,    #''#        ,####,   ,####,        
            ##       ##  ##   ,#'  ##            #'  '#       #'       #'  '#        
            ##       ##  #######   ##           ,######,      #####,   #    #        
            '#,     ,#'  ##    ##  '#,     ,#' ,#      #,     #,   #   #,  ,#        
             '#######'   ##     ##  '#######'  #'      '#     '####' # '####'        



                #########################################################
                #                        -***-                          #
                #          Department of theory and spectroscopy        #
                #                                                       #
                #                      Frank Neese                      #
                #                                                       #
                #     Directorship, Architecture, Infrastructure        #
                #                    SHARK, DRIVERS                     #
                #        Core code/Algorithms in most modules           #
                #                                                       #
                #        Max Planck Institute fuer Kohlenforschung      #
                #                Kaiser Wilhelm Platz 1                 #
                #                 D-45470 Muelheim/Ruhr                 #
                #                      Germany                          #
                #                                                       #
                #                  All rights reserved                  #
                #                        -***-                          #
                #########################################################


                         Program Version 6.0.0  -   RELEASE  -


 With contributions from (in alphabetic order):
   Daniel Aravena         : Magnetic Suceptibility
   Michael Atanasov       : Ab Initio Ligand Field Theory (pilot matlab implementation)
   Alexander A. Auer      : GIAO ZORA, VPT2 properties, NMR spectrum
   Ute Becker             : All parallelization in ORCA, NUMFREQ, NUMCALC
   Giovanni Bistoni       : ED, misc. LED, open-shell LED, HFLD
   Martin Brehm           : Molecular dynamics
   Dmytro Bykov           : pre 5.0 version of the SCF Hessian
   Marcos Casanova-Páez   : Triplet and SCS-CIS(D). UHF-(DLPNO)-IP/EA/STEOM-CCSD. UHF-CVS-IP/STEOM-CCSD
   Vijay G. Chilkuri      : MRCI spin determinant printing, contributions to CSF-ICE
   Pauline Colinet        : FMM embedding
   Dipayan Datta          : RHF DLPNO-CCSD density
   Achintya Kumar Dutta   : EOM-CC, STEOM-CC
   Nicolas Foglia         : Exact transition moments, OPA infrastructure, MCD improvements
   Dmitry Ganyushin       : Spin-Orbit,Spin-Spin,Magnetic field MRCI
   Miquel Garcia          : C-PCM and meta-GGA Hessian, CCSD/C-PCM, Gaussian charge scheme
   Tiago L. C. Gouveia    : GS-ROHF, GS-ROCIS
   Yang Guo               : DLPNO-NEVPT2, F12-NEVPT2, CIM, IAO-localization
   Andreas Hansen         : Spin unrestricted coupled pair/coupled cluster methods
   Ingolf Harden          : AUTO-CI MPn and infrastructure 
   Benjamin Helmich-Paris : MC-RPA, TRAH-(SCF,CASSCF), AVAS, COSX integrals, SCF dyn. polar.
   Lee Huntington         : MR-EOM, pCC
   Robert Izsak           : Overlap fitted RIJCOSX, COSX-SCS-MP3, EOM
   Riya Kayal             : Wick's Theorem for AUTO-CI, AUTO-CI UHF-CCSDT
   Emily Kempfer          : AUTO-CI, RHF CISDT and CCSDT
   Christian Kollmar      : KDIIS, OOCD, Brueckner-CCSD(T), CCSD density, CASPT2, CASPT2-K, improved NEVPT2
   Axel Koslowski         : Symmetry handling
   Simone Kossmann        : Meta GGA functionals, TD-DFT gradient, OOMP2, (MP2 Hessian; deprecated post 5.0)
   Lucas Lang             : DCDCAS
   Marvin Lechner         : AUTO-CI (C++ implementation), FIC-MRCC
   Spencer Leger          : CASSCF response
   Dagmar Lenk            : GEPOL surface, SMD, ORCA-2-JSON
   Dimitrios Liakos       : Extrapolation schemes; Compound Job, initial MDCI parallelization
   Dimitrios Manganas     : Further ROCIS development; embedding schemes. LFT, Crystal Embedding
   Dimitrios Pantazis     : SARC Basis sets
   Anastasios Papadopoulos: AUTO-CI, single reference methods and gradients
   Taras Petrenko         : pre 6.0 DFT Hessian and TD-DFT gradient, (ASA, deprecated), ECA, 1-Electron XAS/XES, NRVS
   Peter Pinski           : DLPNO-MP2, DLPNO-MP2 Gradient
   Christoph Reimann      : Effective Core Potentials
   Marius Retegan         : Local ZFS, SOC
   Christoph Riplinger    : Optimizer, TS searches, QM/MM, DLPNO-CCSD(T), (RO)-DLPNO pert. Triples
   Michael Roemelt        : Original ROCIS implementation
   Masaaki Saitow         : Open-shell DLPNO-CCSD energy and density
   Barbara Sandhoefer     : DKH picture change effects
   Kantharuban Sivalingam : CASSCF convergence/infrastructure, NEVPT2 and variants, FIC-MRCI
   Bernardo de Souza      : ESD, SOC TD-DFT
   Georgi Stoychev        : AutoAux, RI-MP2 NMR, DLPNO-MP2 response, X2C
   Van Anh Tran           : RI-MP2 g-tensors
   Willem Van den Heuvel  : Paramagnetic NMR
   Zikuan Wang            : NOTCH, Electric field optimization 
   Frank Wennmohs         : Technical directorship and infrastructure
   Hang Xu                : AUTO-CI-Response properties 


 We gratefully acknowledge several colleagues who have allowed us to
 interface, adapt or use parts of their codes:
   Stefan Grimme, W. Hujo, H. Kruse, P. Pracht,  : VdW corrections, initial TS optimization,
                  C. Bannwarth, S. Ehlert,         DFT functionals, gCP, sTDA/sTD-DF
                  L. Wittmann, M. Mueller
   Ed Valeev, F. Pavosevic, A. Kumar             : LibInt (2-el integral package), F12 methods
   Garnet Chan, S. Sharma, J. Yang, R. Olivares  : DMRG
   Ulf Ekstrom                                   : XCFun DFT Library
   Mihaly Kallay                                 : mrcc  (arbitrary order and MRCC methods)
   Frank Weinhold                                : gennbo (NPA and NBO analysis)
   Simon Mueller                                 : openCOSMO-RS
   Christopher J. Cramer and Donald G. Truhlar   : smd solvation model
   Lars Goerigk                                  : TD-DFT with DH, B97 family of functionals
   V. Asgeirsson, H. Jonsson                     : NEB implementation
   FAccTs GmbH                                   : IRC, NEB, NEB-TS, DLPNO-Multilevel, CI-OPT
                                                   MM, QMMM, 2- and 3-layer-ONIOM, Crystal-QMMM,
                                                   LR-CPCM, SF, NACMEs, symmetry and pop. for TD-DFT,
                                                   nearIR, NL-DFT gradient (VV10), updates on ESD,
                                                   ML-optimized integration grids, MBIS, APM,
                                                   GOAT, DOCKER, SOLVATOR, interface openCOSMO-RS
   S Lehtola, MJT Oliveira, MAL Marques          : LibXC Library
   Liviu Ungur et al                             : ANISO software


 Your calculation uses the libint2 library for the computation of 2-el integrals
 For citations please refer to: http://libint.valeyev.net

 Your ORCA version has been built with support for libXC version: 6.2.2
 For citations please refer to: https://libxc.gitlab.io

 This ORCA versions uses:
   CBLAS   interface :  Fast vector & matrix operations
   LAPACKE interface :  Fast linear algebra routines
   SCALAPACK package :  Parallel linear algebra routines
   Shared memory     :  Shared parallel matrices
   BLAS/LAPACK       :  OpenBLAS 0.3.27  USE64BITINT DYNAMIC_ARCH NO_AFFINITY Sandybridge SINGLE_THREADED
        Core in use  :  Sandybridge
   Copyright (c) 2011-2014, The OpenBLAS Project


NOTE: MaxCore=3500 MB was set to SCF,MP2,MDCI,CIPSI,MRCI and CIS
      => If you want to overwrite this, your respective input block should be placed after the MaxCore statement
Your calculation utilizes the atom-pairwise dispersion correction
with the Becke-Johnson damping scheme (D3BJ)


Warning: RI is on but no J-basis has been assigned. Assigning Def2/J (nothing to worry about!)
================================================================================

cite the ECPs for Pd [Def2-ECP] as follows:
Ce-Yb(ecp-28): M. Dolg, H. Stoll, H.Preuss, J. Chem. Phys., 1989, 90, 1730-1734.
Y-Cd(ecp-28), Hf-Hg(ecp-46): D. Andrae,U. Haeussermann, M. Dolg, H. Stoll, H. Preuss, Theor. Chim. Acta, 1990, 77, 123-141.
In-Sb(ecp-28), Tl-Bi(ecp-46): B. Metz, H. Stoll, M. Dolg, J. Chem. Phys., 2000, 113, 2563-2569.
Te-Xe(ecp-28), Po-Rn(ecp-46): K. A. Peterson, D. Figgen, E. Goll, H. Stoll, M. Dolg, J. Chem. Phys., 2003, 119, 11113-11123.
Rb(ecp-28), Cs(ecp-46): T. Leininger, A. Nicklass, W. Kuechle, H. Stoll, M. Dolg, A. Bergner, Chem. Phys. Lett., 1996, 255, 274-280.
Sr(ecp-28), Ba(ecp-46): M. Kaupp, P. V. Schleyer, H. Stoll and H. Preuss, J. Chem. Phys., 1991, 94, 1360-1366.
La(ecp-46): M. Dolg, H. Stoll, A. Savin, H. Preuss, Theor. Chim. Acta, 1989, 75, 173-194.
Lu(ecp-28): X. Cao, M. Dolg, J. Chem. Phys., 2001, 115, 7348-7355.

ECP parameters for Pd [Def2-ECP] have been obtained from:
TURBOMOLE (7.0.2)

----- Orbital basis set information -----
Your calculation utilizes the basis: def2-SV(P)
   F. Weigend and R. Ahlrichs, Phys. Chem. Chem. Phys. 7, 3297 (2005).

----- AuxJ basis set information -----
Your calculation utilizes the auxiliary basis: def2/J
   F. Weigend, Phys. Chem. Chem. Phys. 8, 1057 (2006).

================================================================================
                                        WARNINGS
                       Please study these warnings very carefully!
================================================================================

WARNING: Old DensityContainer found on disk!
         Will remove this file - 
         If you want to keep old densities, please start your calculation with a different basename. 


WARNING: Geometry Optimization
  ===> : Switching off AutoStart
         For restart on a previous wavefunction, please use MOREAD

================================================================================
                                       INPUT FILE
================================================================================
NAME = CS_PdOAc_002_opt_01.inp
|  1> !PBE0 def2-SV(p) opt d3 TightSCF SlowConv RIJCOSX defgrid2
|  2> 
|  3> %pal
|  4> nprocs 16
|  5> end
|  6> 
|  7> %scf
|  8> MaxIter 1500
|  9> end
| 10> 
| 11> %maxcore 3500
| 12> 
| 13>  
| 14> 
| 15> * xyz 0 1
| 16> 46      -1.475210706      1.824296760     -0.229962289
| 17> 8       -0.162388689      2.363505427     -1.660739664
| 18> 8        1.992847000      1.725321294     -1.315166368
| 19> 6        1.073434063      2.320419917     -1.924338275
| 20> 6        1.481703185      3.077255885     -3.164492428
| 21> 1        0.966049235      4.049161665     -3.199267233
| 22> 1        2.572376254      3.208778247     -3.191840215
| 23> 1        1.163490415      2.495704777     -4.046998778
| 24> 8       -3.004201713      3.107223783     -0.723602254
| 25> 6       -3.700659236      2.637988010      0.223596023
| 26> 8       -3.166760932      1.710888134      0.916174555
| 27> 6       -5.057233783      3.159310061      0.537827042
| 28> 1       -5.511494814      3.602226304     -0.360867222
| 29> 1       -4.965729032      3.945306181      1.308120561
| 30> 1       -5.688967377      2.353865198      0.942277782
| 31> 8        4.109941058      1.390965818     -0.767704663
| 32> 46       2.376969937      0.741654713      0.105816679
| 33> 8        4.127990219     -0.024888487      0.863269752
| 34> 6        4.787082540      0.663681946      0.030270390
| 35> 1        6.633952345      0.809894823     -1.027222982
| 36> 1        6.645950065      1.485549106      0.625939561
| 37> 6        6.273648832      0.654588239      0.001110820
| 38> 1        6.655852670     -0.290928470      0.413539773
| 39> 8        1.082897392     -0.244493971      1.295042709
| 40> 6       -0.106998608     -0.177917500      1.717314597
| 41> 8       -1.027987734      0.598205349      1.370954546
| 42> 6       -0.461895052     -1.199291849      2.770077454
| 43> 1       -0.577659307     -2.180220962      2.277476977
| 44> 1        0.355977626     -1.285603975      3.501749258
| 45> 1       -1.405507362     -0.928837641      3.264105901
| 46> *
| 47> 
| 48>                          ****END OF INPUT****
================================================================================

                       *****************************
                       * Geometry Optimization Run *
                       *****************************

Geometry optimization settings:
Update method            Update   .... BFGS
Choice of coordinates    CoordSys .... (2022) Redundant Internals
Initial Hessian          InHess   .... Almloef's Model
Max. no of cycles        MaxIter  .... 90

Convergence Tolerances:
Energy Change            TolE     ....  5.0000e-06 Eh
Max. Gradient            TolMAXG  ....  3.0000e-04 Eh/bohr
RMS Gradient             TolRMSG  ....  1.0000e-04 Eh/bohr
Max. Displacement        TolMAXD  ....  4.0000e-03 bohr
RMS Displacement         TolRMSD  ....  2.0000e-03 bohr
Strict Convergence                .... False

------------------------------------------------------------------------------
                        ORCA OPTIMIZATION COORDINATE SETUP
------------------------------------------------------------------------------

The optimization will be done in redundant internal coordinates (2022)
Making redundant internal coordinates   ...  (2022 redundants) done
Evaluating the initial hessian          ...  (Almloef) done
Evaluating the coordinates              ...  done
Calculating the B-matrix                .... done
Calculating the G-matrix                .... done
Diagonalizing the G-matrix              .... done
Small eigenvalue found = 1.261e-02
Small eigenvalue found = 1.547e-02
Small eigenvalue found = 1.708e-02
The first mode is                       ....  114
The number of degrees of freedom        ....   84

    -----------------------------------------------------------------
                    Redundant Internal Coordinates


    -----------------------------------------------------------------
         Definition                    Initial Value    Approx d2E/dq
    -----------------------------------------------------------------
      1. B(O   1,Pd  0)                  2.0153         0.569376   
      2. B(C   3,O   2)                  1.2532         0.924920   
      3. B(C   3,O   1)                  1.2644         0.887832   
      4. B(C   4,C   3)                  1.5091         0.403346   
      5. B(H   5,C   4)                  1.1008         0.346122   
      6. B(H   6,C   4)                  1.0989         0.348498   
      7. B(H   7,C   4)                  1.1038         0.342354   
      8. B(O   8,Pd  0)                  2.0561         0.490161   
      9. B(C   9,O   8)                  1.2659         0.882920   
     10. B(C   9,Pd  0)                  2.4126         0.147720   
     11. B(O  10,C   9)                  1.2745         0.855511   
     12. B(O  10,Pd  0)                  2.0464         0.507837   
     13. B(C  11,C   9)                  1.4869         0.437696   
     14. B(H  12,C  11)                  1.1001         0.347007   
     15. B(H  13,C  11)                  1.1043         0.341650   
     16. B(H  14,C  11)                  1.1006         0.346296   
     17. B(Pd 16,O  15)                  2.0464         0.507837   
     18. B(Pd 16,O   2)                  1.7704         1.399859   
     19. B(O  17,Pd 16)                  2.0561         0.490161   
     20. B(C  18,O  17)                  1.2659         0.882920   
     21. B(C  18,Pd 16)                  2.4126         0.147720   
     22. B(C  18,O  15)                  1.2745         0.855511   
     23. B(C  21,H  20)                  1.1043         0.341650   
     24. B(C  21,H  19)                  1.1006         0.346296   
     25. B(C  21,C  18)                  1.4869         0.437696   
     26. B(H  22,C  21)                  1.1001         0.347007   
     27. B(O  23,Pd 16)                  2.0153         0.569376   
     28. B(C  24,O  23)                  1.2644         0.887832   
     29. B(O  25,C  24)                  1.2532         0.924920   
     30. B(O  25,Pd  0)                  2.0655         0.473480   
     31. B(C  26,C  24)                  1.5091         0.403346   
     32. B(H  27,C  26)                  1.1038         0.342354   
     33. B(H  28,C  26)                  1.1008         0.346122   
     34. B(H  29,C  26)                  1.0989         0.348498   
     35. A(O   1,Pd  0,C   9)          130.1014         0.413415   
     36. A(O   1,Pd  0,O  25)          124.6146         0.508815   
     37. A(O   8,Pd  0,C   9)           31.6480         0.402600   
     38. A(O   1,Pd  0,O   8)           98.4550         0.512118   
     39. A(C   9,Pd  0,O  25)          104.7276         0.400152   
     40. A(O  10,Pd  0,O  25)           73.2605         0.498086   
     41. A(O   8,Pd  0,O  25)          135.8485         0.494819   
     42. A(C   9,Pd  0,O  10)           31.8878         0.405125   
     43. A(O   1,Pd  0,O  10)          161.9754         0.515524   
     44. A(O   8,Pd  0,O  10)           63.5352         0.501304   
     45. A(Pd  0,O   1,C   3)          140.8621         0.507072   
     46. A(C   3,O   2,Pd 16)          144.4061         0.606250   
     47. A(O   1,C   3,C   4)          114.7503         0.425782   
     48. A(O   1,C   3,O   2)          129.1923         0.492030   
     49. A(O   2,C   3,C   4)          116.0477         0.428916   
     50. A(H   5,C   4,H   6)          111.0065         0.287562   
     51. A(H   6,C   4,H   7)          109.2263         0.287070   
     52. A(C   3,C   4,H   6)          110.4248         0.326670   
     53. A(C   3,C   4,H   5)          110.0002         0.326302   
     54. A(H   5,C   4,H   7)          107.7515         0.286764   
     55. A(C   3,C   4,H   7)          108.3496         0.325715   
     56. A(Pd  0,O   8,C   9)           89.8967         0.492627   
     57. A(Pd  0,C   9,O   8)           58.4554         0.398471   
     58. A(O  10,C   9,C  11)          121.4946         0.429202   
     59. A(O   8,C   9,C  11)          122.0144         0.431639   
     60. A(O   8,C   9,O  10)          116.4744         0.484480   
     61. A(Pd  0,C   9,O  10)           58.0203         0.396270   
     62. A(Pd  0,O  10,C   9)           90.0919         0.492983   
     63. A(H  13,C  11,H  14)          108.1855         0.286694   
     64. A(H  12,C  11,H  14)          110.9666         0.287392   
     65. A(C   9,C  11,H  14)          110.1665         0.330760   
     66. A(C   9,C  11,H  13)          108.7454         0.330023   
     67. A(C   9,C  11,H  12)          110.1979         0.330873   
     68. A(H  12,C  11,H  13)          108.5110         0.286786   
     69. A(Pd 16,O  15,C  18)           90.0919         0.492983   
     70. A(O   2,Pd 16,O  15)           70.4176         0.611842   
     71. A(C  18,Pd 16,O  23)          130.1014         0.413415   
     72. A(O  17,Pd 16,O  23)           98.4550         0.512118   
     73. A(O  15,Pd 16,O  23)          161.9754         0.515524   
     74. A(O   2,Pd 16,O  23)          127.3149         0.625554   
     75. A(O  17,Pd 16,C  18)           31.6480         0.402600   
     76. A(O  15,Pd 16,C  18)           31.8878         0.405125   
     77. A(O   2,Pd 16,C  18)          102.0973         0.486675   
     78. A(O  15,Pd 16,O  17)           63.5352         0.501304   
     79. A(O   2,Pd 16,O  17)          133.4414         0.607666   
     80. A(Pd 16,O  17,C  18)           89.8967         0.492627   
     81. A(O  17,C  18,C  21)          122.0144         0.431639   
     82. A(O  15,C  18,C  21)          121.4946         0.429202   
     83. A(Pd 16,C  18,O  17)           58.4554         0.398471   
     84. A(O  15,C  18,O  17)          116.4744         0.484480   
     85. A(O  15,C  18,Pd 16)           58.0203         0.396270   
     86. A(H  20,C  21,H  22)          108.5110         0.286786   
     87. A(H  19,C  21,H  22)          110.9666         0.287392   
     88. A(C  18,C  21,H  22)          110.1979         0.330873   
     89. A(H  19,C  21,H  20)          108.1855         0.286694   
     90. A(C  18,C  21,H  20)          108.7454         0.330023   
     91. A(C  18,C  21,H  19)          110.1665         0.330760   
     92. A(Pd 16,O  23,C  24)          140.8621         0.507072   
     93. A(O  25,C  24,C  26)          116.0477         0.428916   
     94. A(O  23,C  24,C  26)          114.7503         0.425782   
     95. A(O  23,C  24,O  25)          129.1923         0.492030   
     96. A(Pd  0,O  25,C  24)          137.8132         0.493711   
     97. A(C  24,C  26,H  27)          108.3496         0.325715   
     98. A(H  28,C  26,H  29)          111.0065         0.287562   
     99. A(H  27,C  26,H  29)          109.2263         0.287070   
    100. A(C  24,C  26,H  29)          110.4248         0.326670   
    101. A(H  27,C  26,H  28)          107.7515         0.286764   
    102. A(C  24,C  26,H  28)          110.0002         0.326302   
    103. D(C   3,O   1,Pd  0,O  25)    -10.4352         0.002977   
    104. D(C   3,O   1,Pd  0,O   8)    159.3020         0.002977   
    105. D(C   3,O   1,Pd  0,C   9)    159.6611         0.002977   
    106. D(C   3,O   1,Pd  0,O  10)    161.5327         0.002977   
    107. D(O   1,C   3,O   2,Pd 16)     -3.6320         0.068481   
    108. D(O   2,C   3,O   1,Pd  0)      8.0429         0.062386   
    109. D(C   4,C   3,O   2,Pd 16)    177.5717         0.068481   
    110. D(C   4,C   3,O   1,Pd  0)   -173.1479         0.062386   
    111. D(H   7,C   4,C   3,O   1)    -74.5968         0.012065   
    112. D(H   6,C   4,C   3,O   1)    165.8173         0.012065   
    113. D(H   5,C   4,C   3,O   1)     42.9556         0.012065   
    114. D(H   6,C   4,C   3,O   2)    -15.2099         0.012065   
    115. D(H   5,C   4,C   3,O   2)   -138.0716         0.012065   
    116. D(C   9,O   8,Pd  0,O  10)      0.2473         0.002594   
    117. D(C   9,O   8,Pd  0,O   1)    179.4765         0.002594   
    118. D(C   9,O   8,Pd  0,O  25)    -12.6753         0.002594   
    119. D(C  11,C   9,O   8,Pd  0)    178.1455         0.068188   
    120. D(O  10,C   9,Pd  0,O  25)     -9.5120         0.001609   
    121. D(O  10,C   9,Pd  0,O   8)    179.5809         0.001609   
    122. D(O   8,C   9,Pd  0,O   1)     -0.6770         0.001609   
    123. D(O   8,C   9,Pd  0,O  10)   -179.5809         0.001609   
    124. D(O  10,C   9,O   8,Pd  0)     -0.3972         0.068188   
    125. D(O   8,C   9,Pd  0,O  25)    170.9072         0.001609   
    126. D(O  10,C   9,Pd  0,O   1)    178.9039         0.001609   
    127. D(Pd  0,O  10,C   9,C  11)   -178.1518         0.063477   
    128. D(Pd  0,O  10,C   9,O   8)      0.3990         0.063477   
    129. D(C   9,O  10,Pd  0,O  25)    170.3926         0.002675   
    130. D(C   9,O  10,Pd  0,O   8)     -0.2457         0.002675   
    131. D(C   9,O  10,Pd  0,O   1)     -2.7105         0.002675   
    132. D(H  12,C  11,Pd  0,O   1)     24.3802         0.001500   
    133. D(H  12,C  11,Pd  0,O   8)     23.5852         0.001500   
    134. D(H  14,C  11,C   9,O  10)    -32.9462         0.015138   
    135. D(H  13,C  11,C   9,O  10)     85.4612         0.015138   
    136. D(H  13,C  11,C   9,O   8)    -93.0089         0.015138   
    137. D(H  12,C  11,C   9,O  10)   -155.7170         0.015138   
    138. D(H  12,C  11,C   9,O   8)     25.8129         0.015138   
    139. D(H  13,C  11,Pd  0,O  10)     87.3293         0.001500   
    140. D(H  13,C  11,Pd  0,O   8)    -95.0281         0.001500   
    141. D(H  13,C  11,Pd  0,O   1)    -94.2330         0.001500   
    142. D(H  14,C  11,Pd  0,O   1)    147.7989         0.001500   
    143. D(H  12,C  11,Pd  0,O  25)   -164.6874         0.001500   
    144. D(H  14,C  11,C   9,O   8)    148.5838         0.015138   
    145. D(H  12,C  11,Pd  0,O  10)   -154.0575         0.001500   
    146. D(H  13,C  11,Pd  0,O  25)     76.6993         0.001500   
    147. D(O  23,Pd 16,O  15,C  18)     -2.7105         0.002675   
    148. D(O  17,Pd 16,O  15,C  18)     -0.2457         0.002675   
    149. D(O   2,Pd 16,O  15,C  18)   -173.1533         0.002675   
    150. D(O  23,Pd 16,O   2,C   3)     16.0659         0.010772   
    151. D(C  18,Pd 16,O   2,C   3)   -171.3306         0.010772   
    152. D(O  17,Pd 16,O   2,C   3)   -176.3940         0.010772   
    153. D(O  15,Pd 16,O   2,C   3)   -167.6378         0.010772   
    154. D(C  18,O  17,Pd 16,O  23)    179.4765         0.002594   
    155. D(C  18,O  17,Pd 16,O  15)      0.2473         0.002594   
    156. D(C  18,O  17,Pd 16,O   2)      9.4667         0.002594   
    157. D(O  17,C  18,Pd 16,O  23)     -0.6770         0.001609   
    158. D(O  17,C  18,Pd 16,O  15)   -179.5809         0.001609   
    159. D(O  17,C  18,Pd 16,O   2)   -172.9848         0.001609   
    160. D(O  15,C  18,Pd 16,O  23)    178.9039         0.001609   
    161. D(O  15,C  18,Pd 16,O  17)    179.5809         0.001609   
    162. D(O  15,C  18,Pd 16,O   2)      6.5961         0.001609   
    163. D(C  21,C  18,O  15,Pd 16)   -178.1518         0.063477   
    164. D(O  15,C  18,O  17,Pd 16)     -0.3972         0.068188   
    165. D(O  17,C  18,O  15,Pd 16)      0.3990         0.063477   
    166. D(C  21,C  18,O  17,Pd 16)    178.1455         0.068188   
    167. D(H  22,C  21,C  18,O  15)   -155.7170         0.015138   
    168. D(H  20,C  21,C  18,O  17)    -93.0089         0.015138   
    169. D(H  20,C  21,C  18,O  15)     85.4612         0.015138   
    170. D(H  19,C  21,C  18,O  15)    -32.9462         0.015138   
    171. D(H  22,C  21,Pd 16,O   2)   -148.5647         0.001500   
    172. D(H  20,C  21,Pd 16,O  23)    -94.2330         0.001500   
    173. D(H  20,C  21,Pd 16,O  17)    -95.0281         0.001500   
    174. D(H  20,C  21,Pd 16,O  15)     87.3293         0.001500   
    175. D(H  20,C  21,Pd 16,O   2)     92.8221         0.001500   
    176. D(H  19,C  21,C  18,O  17)    148.5838         0.015138   
    177. D(H  19,C  21,Pd 16,O  23)    147.7989         0.001500   
    178. D(H  19,C  21,Pd 16,O  17)    147.0038         0.001500   
    179. D(H  19,C  21,Pd 16,O  15)    -30.6389         0.001500   
    180. D(H  22,C  21,C  18,O  17)     25.8129         0.015138   
    181. D(H  19,C  21,Pd 16,O   2)    -25.1461         0.001500   
    182. D(C  24,O  23,Pd 16,C  18)    159.6611         0.002977   
    183. D(C  24,O  23,Pd 16,O  17)    159.3020         0.002977   
    184. D(C  24,O  23,Pd 16,O  15)    161.5327         0.002977   
    185. D(C  24,O  23,Pd 16,O   2)    -29.8107         0.002977   
    186. D(C  26,C  24,O  23,Pd 16)   -173.1479         0.062386   
    187. D(O  25,C  24,O  23,Pd 16)      8.0429         0.062386   
    188. D(Pd  0,O  25,C  24,C  26)   -159.7800         0.068481   
    189. D(Pd  0,O  25,C  24,O  23)     19.0163         0.068481   
    190. D(C  24,O  25,Pd  0,O  10)    169.2287         0.002521   
    191. D(C  24,O  25,Pd  0,C   9)    174.4590         0.002521   
    192. D(C  24,O  25,Pd  0,O   8)   -178.7041         0.002521   
    193. D(C  24,O  25,Pd  0,O   1)    -13.3590         0.002521   
    194. D(H  29,C  26,C  24,O  23)    165.8173         0.012065   
    195. D(H  28,C  26,C  24,O  25)   -138.0716         0.012065   
    196. D(H  28,C  26,C  24,O  23)     42.9556         0.012065   
    197. D(H  27,C  26,C  24,O  25)    104.3760         0.012065   
    198. D(H  27,C  26,C  24,O  23)    -74.5968         0.012065   
    -----------------------------------------------------------------

Number of atoms                         .... 30
Number of degrees of freedom            .... 198


         *************************************************************
         *                GEOMETRY OPTIMIZATION CYCLE   1            *
         *************************************************************
---------------------------------
CARTESIAN COORDINATES (ANGSTROEM)
---------------------------------
  Pd    -1.475211    1.824297   -0.229962
  O     -0.162389    2.363505   -1.660740
  O      1.992847    1.725321   -1.315166
  C      1.073434    2.320420   -1.924338
  C      1.481703    3.077256   -3.164492
  H      0.966049    4.049162   -3.199267
  H      2.572376    3.208778   -3.191840
  H      1.163490    2.495705   -4.046999
  O     -3.004202    3.107224   -0.723602
  C     -3.700659    2.637988    0.223596
  O     -3.166761    1.710888    0.916175
  C     -5.057234    3.159310    0.537827
  H     -5.511495    3.602226   -0.360867
  H     -4.965729    3.945306    1.308121
  H     -5.688967    2.353865    0.942278
  O      4.109941    1.390966   -0.767705
  Pd     2.376970    0.741655    0.105817
  O      4.127990   -0.024888    0.863270
  C      4.787083    0.663682    0.030270
  H      6.633952    0.809895   -1.027223
  H      6.645950    1.485549    0.625940
  C      6.273649    0.654588    0.001111
  H      6.655853   -0.290928    0.413540
  O      1.082897   -0.244494    1.295043
  C     -0.106999   -0.177918    1.717315
  O     -1.027988    0.598205    1.370955
  C     -0.461895   -1.199292    2.770077
  H     -0.577659   -2.180221    2.277477
  H      0.355978   -1.285604    3.501749
  H     -1.405507   -0.928838    3.264106

----------------------------
CARTESIAN COORDINATES (A.U.)
----------------------------
  NO LB      ZA    FRAG     MASS         X           Y           Z
   0 Pd   18.0000*   0   106.400   -2.787744    3.447421   -0.434566
   1 O     8.0000    0    15.999   -0.306870    4.466378   -3.138343
   2 O     8.0000    0    15.999    3.765935    3.260385   -2.485304
   3 C     6.0000    0    12.011    2.028496    4.384958   -3.636472
   4 C     6.0000    0    12.011    2.800013    5.815171   -5.980024
   5 H     1.0000    0     1.008    1.825568    7.651807   -6.045739
   6 H     1.0000    0     1.008    4.861087    6.063712   -6.031704
   7 H     1.0000    0     1.008    2.198678    4.716199   -7.647719
   8 O     8.0000    0    15.999   -5.677118    5.871802   -1.367410
   9 C     6.0000    0    12.011   -6.993232    4.985075    0.422535
  10 O     8.0000    0    15.999   -5.984311    3.233110    1.731319
  11 C     6.0000    0    12.011   -9.556787    5.970231    1.016346
  12 H     1.0000    0     1.008  -10.415216    6.807221   -0.681940
  13 H     1.0000    0     1.008   -9.383868    7.455548    2.471990
  14 H     1.0000    0     1.008  -10.750590    4.448161    1.780647
  15 O     8.0000    0    15.999    7.766663    2.628544   -1.450752
  16 Pd   18.0000*   0   106.400    4.491822    1.401524    0.199965
  17 O     8.0000    0    15.999    7.800771   -0.047032    1.631343
  18 C     6.0000    0    12.011    9.046275    1.254177    0.057203
  19 H     1.0000    0     1.008   12.536353    1.530479   -1.941170
  20 H     1.0000    0     1.008   12.559026    2.807281    1.182854
  21 C     6.0000    0    12.011   11.855478    1.236993    0.002099
  22 H     1.0000    0     1.008   12.577739   -0.549775    0.781477
  23 O     8.0000    0    15.999    2.046380   -0.462027    2.447276
  24 C     6.0000    0    12.011   -0.202198   -0.336215    3.245254
  25 O     8.0000    0    15.999   -1.942615    1.130444    2.590729
  26 C     6.0000    0    12.011   -0.872855   -2.266333    5.234688
  27 H     1.0000    0     1.008   -1.091618   -4.120021    4.303808
  28 H     1.0000    0     1.008    0.672700   -2.429439    6.617347
  29 H     1.0000    0     1.008   -2.656024   -1.755249    6.168266
* core charge reduced due to ECP

--------------------------------
INTERNAL COORDINATES (ANGSTROEM)
--------------------------------
 Pd     0   0   0     0.000000000000     0.00000000     0.00000000
 O      1   0   0     2.015284479100     0.00000000     0.00000000
 O      2   1   0     2.274146161895   115.74726599     0.00000000
 C      3   2   1     1.253217033118    25.52423810   185.62668001
 C      4   3   2     1.509127788373   116.04771570   181.20367934
 H      5   4   3     1.100776602409   110.00020655   221.92839005
 H      5   4   3     1.098914817719   110.42475653   344.79005377
 H      5   4   3     1.103756547431   108.34958351   104.37598450
 O      1   2   3     2.056063146130    98.45502198   163.10600741
 C      9   1   2     1.265867239468    89.89669093   179.47647488
 O     10   9   1     1.274451490674   116.47441710   359.60284172
 C     10   9   1     1.486880060976   122.01444799   178.14548140
 H     12  10   9     1.100081480048   110.19786511    25.81290440
 H     12  10   9     1.104316587544   108.74539411   266.99114763
 H     12  10   9     1.100640341895   110.16646781   148.58375874
 O      3   2   1     2.212147181630   170.75546656   278.52910825
 Pd     3   2   1     1.770407634746   118.91486960     3.21259965
 O     17   3   2     2.056063146705   133.44142208   181.81901606
 C     18  17   3     1.265867238653    89.89669093     9.46667713
 H     19  18  17     2.133213189966   144.51527853   203.92453829
 H     20  19  18     1.785944861691    64.71476438   275.69037715
 C     20  19  18     1.100640343096    40.86536501   310.41301596
 H     22  20  19     1.100081479734   110.96657203   122.31851438
 O     17   3   2     2.015284478456   127.31489407    14.27891011
 C     24  17   3     1.264356937222   140.86214084   330.18930506
 O     25  24  17     1.253217033031   129.19233061     8.04287703
 C     25  24  17     1.509127787776   114.75025932   186.85207298
 H     27  25  24     1.103756548070   108.34958351   285.40321222
 H     27  25  24     1.100776602805   110.00020655    42.95561765
 H     27  25  24     1.098914817742   110.42475654   165.81728145

---------------------------
INTERNAL COORDINATES (A.U.)
---------------------------
 Pd     0   0   0     0.000000000000     0.00000000     0.00000000
 O      1   0   0     3.808335747440     0.00000000     0.00000000
 O      2   1   0     4.297513434489   115.74726599     0.00000000
 C      3   2   1     2.368236978959    25.52423810   185.62668001
 C      4   3   2     2.851838221116   116.04771570   181.20367934
 H      5   4   3     2.080166313181   110.00020655   221.92839005
 H      5   4   3     2.076648049996   110.42475653   344.79005377
 H      5   4   3     2.085797593168   108.34958351   104.37598450
 O      1   2   3     3.885396260235    98.45502198   163.10600741
 C      9   1   2     2.392142404497    89.89669093   179.47647488
 O     10   9   1     2.408364288341   116.47441710   359.60284172
 C     10   9   1     2.809796109233   122.01444799   178.14548140
 H     12  10   9     2.078852722290   110.19786511    25.81290440
 H     12  10   9     2.086855915604   108.74539411   266.99114763
 H     12  10   9     2.079908818128   110.16646781   148.58375874
 O      3   2   1     4.180352341206   170.75546656   278.52910825
 Pd     3   2   1     3.345585575073   118.91486960     3.21259965
 O     17   3   2     3.885396261321   133.44142208   181.81901606
 C     18  17   3     2.392142402958    89.89669093     9.46667713
 H     19  18  17     4.031188714304   144.51527853   203.92453829
 H     20  19  18     3.374946678879    64.71476438   275.69037715
 C     20  19  18     2.079908820396    40.86536501   310.41301596
 H     22  20  19     2.078852721695   110.96657203   122.31851438
 O     17   3   2     3.808335746225   127.31489407    14.27891011
 C     24  17   3     2.389288346873   140.86214084   330.18930506
 O     25  24  17     2.368236978794   129.19233061     8.04287703
 C     25  24  17     2.851838219987   114.75025932   186.85207298
 H     27  25  24     2.085797594374   108.34958351   285.40321222
 H     27  25  24     2.080166313929   110.00020655    42.95561765
 H     27  25  24     2.076648050041   110.42475654   165.81728145

---------------------
BASIS SET INFORMATION
---------------------
There are 4 groups of distinct atoms

 Group   1 Type Pd  : 7s6p5d contracted to 5s3p2d pattern {31111/411/41}
 Group   2 Type O   : 7s4p1d contracted to 3s2p1d pattern {511/31/1}
 Group   3 Type C   : 7s4p1d contracted to 3s2p1d pattern {511/31/1}
 Group   4 Type H   : 4s contracted to 2s pattern {31}

Atom   0Pd   basis set group =>   1
Atom   1O    basis set group =>   2
Atom   2O    basis set group =>   2
Atom   3C    basis set group =>   3
Atom   4C    basis set group =>   3
Atom   5H    basis set group =>   4
Atom   6H    basis set group =>   4
Atom   7H    basis set group =>   4
Atom   8O    basis set group =>   2
Atom   9C    basis set group =>   3
Atom  10O    basis set group =>   2
Atom  11C    basis set group =>   3
Atom  12H    basis set group =>   4
Atom  13H    basis set group =>   4
Atom  14H    basis set group =>   4
Atom  15O    basis set group =>   2
Atom  16Pd   basis set group =>   1
Atom  17O    basis set group =>   2
Atom  18C    basis set group =>   3
Atom  19H    basis set group =>   4
Atom  20H    basis set group =>   4
Atom  21C    basis set group =>   3
Atom  22H    basis set group =>   4
Atom  23O    basis set group =>   2
Atom  24C    basis set group =>   3
Atom  25O    basis set group =>   2
Atom  26C    basis set group =>   3
Atom  27H    basis set group =>   4
Atom  28H    basis set group =>   4
Atom  29H    basis set group =>   4
---------------------------------
AUXILIARY/J BASIS SET INFORMATION
---------------------------------
There are 4 groups of distinct atoms

 Group   1 Type Pd  : 11s5p5d3f3g contracted to 8s5p5d2f3g pattern {41111111/11111/11111/21/111}
 Group   2 Type O   : 12s5p4d2f1g contracted to 6s4p3d1f1g pattern {711111/2111/211/2/1}
 Group   3 Type C   : 12s5p4d2f1g contracted to 6s4p3d1f1g pattern {711111/2111/211/2/1}
 Group   4 Type H   : 5s2p1d contracted to 3s1p1d pattern {311/2/1}

Atom   0Pd   basis set group =>   1
Atom   1O    basis set group =>   2
Atom   2O    basis set group =>   2
Atom   3C    basis set group =>   3
Atom   4C    basis set group =>   3
Atom   5H    basis set group =>   4
Atom   6H    basis set group =>   4
Atom   7H    basis set group =>   4
Atom   8O    basis set group =>   2
Atom   9C    basis set group =>   3
Atom  10O    basis set group =>   2
Atom  11C    basis set group =>   3
Atom  12H    basis set group =>   4
Atom  13H    basis set group =>   4
Atom  14H    basis set group =>   4
Atom  15O    basis set group =>   2
Atom  16Pd   basis set group =>   1
Atom  17O    basis set group =>   2
Atom  18C    basis set group =>   3
Atom  19H    basis set group =>   4
Atom  20H    basis set group =>   4
Atom  21C    basis set group =>   3
Atom  22H    basis set group =>   4
Atom  23O    basis set group =>   2
Atom  24C    basis set group =>   3
Atom  25O    basis set group =>   2
Atom  26C    basis set group =>   3
Atom  27H    basis set group =>   4
Atom  28H    basis set group =>   4
Atom  29H    basis set group =>   4
-------------------------
ECP PARAMETER INFORMATION
-------------------------

 Group 1, Type Pd ECP Def2-ECP (replacing 28 core electrons, lmax=3)

Atom   0Pd   ECP group =>   1
Atom  16Pd   ECP group =>   1



           ************************************************************
           *        Program running with 16 parallel MPI-processes    *
           *              working on a common directory               *
           ************************************************************
------------------------------------------------------------------------------
                             ORCA STARTUP CALCULATIONS
                           -- RI-GTO INTEGRALS CHOSEN --
------------------------------------------------------------------------------
------------------------------------------------------------------------------
                   ___                                                        
                  /   \      - P O W E R E D   B Y -                         
                 /     \                                                     
                 |  |  |   _    _      __       _____    __    __             
                 |  |  |  | |  | |    /  \     |  _  \  |  |  /  |          
                  \  \/   | |  | |   /    \    | | | |  |  | /  /          
                 / \  \   | |__| |  /  /\  \   | |_| |  |  |/  /          
                |  |  |   |  __  | /  /__\  \  |    /   |      \           
                |  |  |   | |  | | |   __   |  |    \   |  |\   \          
                \     /   | |  | | |  |  |  |  | |\  \  |  | \   \       
                 \___/    |_|  |_| |__|  |__|  |_| \__\ |__|  \__/        
                                                                              
                      - O R C A' S   B I G   F R I E N D -                    
                                      &                                       
                       - I N T E G R A L  F E E D E R -                       
                                                                              
 v1 FN, 2020, v2 2021, v3 2022-2024                                           
------------------------------------------------------------------------------


----------------------
SHARK INTEGRAL PACKAGE
----------------------

Number of atoms                             ...     30
Number of basis functions                   ...    296
Number of shells                            ...    140
Maximum angular momentum                    ...      2
Integral batch strategy                     ... SHARK/LIBINT Hybrid
RI-J (if used) integral strategy            ... SPLIT-RIJ (Revised 2003 algorithm where possible)
Printlevel                                  ...      1
Contraction scheme used                     ... SEGMENTED contraction
Prescreening option                         ... SCHWARTZ
   Thresh                                   ... 2.500e-11
   Tcut                                     ... 2.500e-12
   Tpresel                                  ... 2.500e-12 
Coulomb Range Separation                    ... NOT USED
Exchange Range Separation                   ... NOT USED
Multipole approximations                    ... NOT USED
Finite Nucleus Model                        ... NOT USED
CABS basis                                  ... NOT available
Auxiliary Coulomb fitting basis             ... AVAILABLE
   # of basis functions in Aux-J            ...   1094
   # of shells in Aux-J                     ...    346
   Maximum angular momentum in Aux-J        ...      4
Auxiliary J/K fitting basis                 ... NOT available
Auxiliary Correlation fitting basis         ... NOT available
Auxiliary 'external' fitting basis          ... NOT available

Checking pre-screening integrals            ... done (  0.1 sec) Dimension = 140
Check shell pair data                       ... done (  0.1 sec)
Shell pair information
Shell pair cut-off parameter TPreSel        ...   2.5e-12
Total number of shell pairs                 ...      9870
Shell pairs after pre-screening             ...      7080
Total number of primitive shell pairs       ...     38500
Primitive shell pairs kept                  ...     17305
          la=0 lb=0:   2310 shell pairs
          la=1 lb=0:   2375 shell pairs
          la=1 lb=1:    623 shell pairs
          la=2 lb=0:   1075 shell pairs
          la=2 lb=1:    566 shell pairs
          la=2 lb=2:    131 shell pairs

Calculating one electron integrals          ... done (  0.0 sec)
Calculating ECP integrals                   ... done (  0.7 sec)
Calculating RI/J V-Matrix + Cholesky decomp.... done (  0.1 sec)
Calculating Nuclear repulsion               ... done (  0.0 sec) ENN=   1792.229882798382 Eh

Diagonalization of the overlap matrix:
Smallest eigenvalue                        ... 2.496e-03
Time for diagonalization                   ...    0.019 sec
Threshold for overlap eigenvalues          ... 1.000e-07
Number of eigenvalues below threshold      ... 0
Time for construction of square roots      ...    0.021 sec
Total time needed                          ...    0.103 sec

-------------------
DFT GRID GENERATION
-------------------

General Integration Accuracy     IntAcc      ... 4.388
Radial Grid Type                 RadialGrid  ... OptM3 with GC (2021)
Angular Grid (max. ang.)         AngularGrid ... 4 (Lebedev-302)
Angular grid pruning method      GridPruning ... 4 (adaptive)
Weight generation scheme         WeightScheme... mBecke (2022)
Basis function cutoff            BFCut       ... 1.0000e-11
Integration weight cutoff        WCut        ... 1.0000e-14
Partially contracted basis set               ... off
Rotationally invariant grid construction     ... off
Angular grids for H and He will be reduced by one unit

Total number of grid points                  ...   156160
Total number of batches                      ...     2456
Average number of points per batch           ...       63
Average number of grid points per atom       ...     5205

--------------------
COSX GRID GENERATION
--------------------

GRIDX 1
-------
General Integration Accuracy     IntAcc      ... 3.816
Radial Grid Type                 RadialGrid  ... OptM3 with GC (2021)
Angular Grid (max. ang.)         AngularGrid ... 1 (Lebedev-50)
Angular grid pruning method      GridPruning ... 4 (adaptive)
Weight generation scheme         WeightScheme... mBecke (2022)
Basis function cutoff            BFCut       ... 1.0000e-11
Integration weight cutoff        WCut        ... 1.0000e-14
Partially contracted basis set               ... on
Rotationally invariant grid construction     ... off
Angular grids for H and He will be reduced by one unit

Total number of grid points                  ...    27294
Total number of batches                      ...      227
Average number of points per batch           ...      120
Average number of grid points per atom       ...      910
UseSFitting                                  ... on

GRIDX 2
-------
General Integration Accuracy     IntAcc      ... 4.020
Radial Grid Type                 RadialGrid  ... OptM3 with GC (2021)
Angular Grid (max. ang.)         AngularGrid ... 2 (Lebedev-110)
Angular grid pruning method      GridPruning ... 4 (adaptive)
Weight generation scheme         WeightScheme... mBecke (2022)
Basis function cutoff            BFCut       ... 1.0000e-11
Integration weight cutoff        WCut        ... 1.0000e-14
Partially contracted basis set               ... on
Rotationally invariant grid construction     ... off
Angular grids for H and He will be reduced by one unit

Total number of grid points                  ...    48088
Total number of batches                      ...      392
Average number of points per batch           ...      122
Average number of grid points per atom       ...     1603
UseSFitting                                  ... on

GRIDX 3
-------
General Integration Accuracy     IntAcc      ... 4.338
Radial Grid Type                 RadialGrid  ... OptM3 with GC (2021)
Angular Grid (max. ang.)         AngularGrid ... 3 (Lebedev-194)
Angular grid pruning method      GridPruning ... 4 (adaptive)
Weight generation scheme         WeightScheme... mBecke (2022)
Basis function cutoff            BFCut       ... 1.0000e-11
Integration weight cutoff        WCut        ... 1.0000e-14
Partially contracted basis set               ... on
Rotationally invariant grid construction     ... off
Angular grids for H and He will be reduced by one unit

Total number of grid points                  ...    93773
Total number of batches                      ...      749
Average number of points per batch           ...      125
Average number of grid points per atom       ...     3126
UseSFitting                                  ... on
Initializing property integral containers    ... done (  0.1 sec)

SHARK setup successfully completed in   5.2 seconds

Maximum memory used throughout the entire STARTUP-calculation: 38.8 MB


           ************************************************************
           *        Program running with 16 parallel MPI-processes    *
           *              working on a common directory               *
           ************************************************************
-------------------------------------------------------------------------------
                                 ORCA GUESS
                   Start orbitals & Density for SCF / CASSCF
-------------------------------------------------------------------------------

------------
SCF SETTINGS
------------
Hamiltonian:
 Density Functional     Method          .... DFT(GTOs)
 Exchange Functional    Exchange        .... PBE
   PBE kappa parameter   XKappa         ....  0.804000
   PBE mue parameter    XMuePBE         ....  0.219520
 Correlation Functional Correlation     .... PBE
   PBE beta parameter  CBetaPBE         ....  0.066725
 LDA part of GGA corr.  LDAOpt          .... PW91-LDA
 Gradients option       PostSCFGGA      .... off
 Hybrid DFT is turned on
   Fraction HF Exchange ScalHFX         ....  0.250000
   Scaling of DF-GGA-X  ScalDFX         ....  0.750000
   Scaling of DF-GGA-C  ScalDFC         ....  1.000000
   Scaling of DF-LDA-C  ScalLDAC        ....  1.000000
   Perturbative correction              ....  0.000000
   NL short-range parameter             ....  6.900000
 RI-approximation to the Coulomb term is turned on
   Number of AuxJ basis functions       .... 1094
   RIJ-COSX (HFX calculated with COS-X)).... on


General Settings:
 Integral files         IntName         .... CS_PdOAc_002_opt_01
 Hartree-Fock type      HFTyp           .... RHF
 Total Charge           Charge          ....    0
 Multiplicity           Mult            ....    1
 Number of Electrons    NEL             ....  160
 Basis Dimension        Dim             ....  296
 Nuclear Repulsion      ENuc            ....   1792.2298827984 Eh

Convergence Acceleration:
 AO-DIIS                CNVDIIS         .... on
   Start iteration      DIISMaxIt       ....     0
   Startup error        DIISStart       ....  0.200000
   # of expansion vecs  DIISMaxEq       ....     5
   Bias factor          DIISBfac        ....   1.050
   Max. coefficient     DIISMaxC        ....  10.000
 MO-DIIS                CNVKDIIS        .... off
 Trust-Rad. Augm. Hess. CNVTRAH         .... auto
   Auto Start mean grad. ratio tolernc. ....  1.125000
   Auto Start start iteration           ....    50
   Auto Start num. interpolation iter.  ....    10
   Max. Number of Micro iterations      ....    24
   Max. Number of Macro iterations      .... Maxiter - #DIIS iter
   Number of Davidson start vectors     ....     2
   Converg. threshold    (grad. norm)   ....   1.000e-05
   Grad. Scal. Fac. for Micro threshold ....   0.100
   Minimum threshold for Micro iter.    ....   1.000e-02
   NR start threshold (gradient norm)   ....   1.000e-04
   Initial trust radius                 ....   0.400
   Minimum AH scaling param. (alpha)    ....   1.000
   Maximum AH scaling param. (alpha)    .... 1000.000
   Quad. conv. algorithm                .... NR
   White noise on init. David. guess    .... on
   Maximum white noise                  ....   0.010
   Pseudo random numbers                .... off
   Inactive MOs                         .... canonical
   Orbital update algorithm             .... Taylor
   Preconditioner                       .... Diag
   Full preconditioner red. dimension   ....   250
 SOSCF                  CNVSOSCF        .... on
   Start iteration      SOSCFMaxIt      ....   150
   Startup grad/error   SOSCFStart      ....  0.001000
   Hessian update       SOSCFHessUp     .... L-BFGS
 Level Shifting         CNVShift        .... on
   Level shift para.    LevelShift      ....    0.2500
   Turn off err/grad.   ShiftErr        ....    0.0000
 Zerner damping         CNVZerner       .... off
 Static damping         CNVDamp         .... on
   Fraction old density DampFac         ....    0.8500
   Max. Damping (<1)    DampMax         ....    0.9800
   Min. Damping (>=0)   DampMin         ....    0.0000
   Turn off err/grad.   DampErr         ....    0.0300

SCF Procedure:
 Maximum # iterations   MaxIter         ....  1500
 SCF integral mode      SCFMode         .... Direct
   Integral package                     .... SHARK and LIBINT hybrid scheme
 Reset frequency        DirectResetFreq ....    20
 Integral Threshold     Thresh          ....  2.500e-11 Eh
 Primitive CutOff       TCut            ....  2.500e-12 Eh

Convergence Tolerance:
 Convergence Check Mode ConvCheckMode   .... Total+1el-Energy
 Convergence forced     ConvForced      .... 0
 Energy Change          TolE            ....  1.000e-08 Eh
 1-El. energy change                    ....  1.000e-05 Eh
 Orbital Gradient       TolG            ....  1.000e-05
 Orbital Rotation angle TolX            ....  1.000e-05
 DIIS Error             TolErr          ....  5.000e-07

------------------------------
INITIAL GUESS: MODEL POTENTIAL
------------------------------
Loading Hartree-Fock densities                     ... done
Atomic calculation to generate a density for atom 0 (Pd with ECP)
  Multiplicity assumed   :    3
  Atomic configuration   : 1s2 2s2 2p6 3s2 3p6 4s2 3d10 4p6 5s2 4d8 
  Number of open shells  : 1
  Command: /opt/apps/software/ORCA/6.0.0-gompi-2023b/bin/orca CS_PdOAc_002_opt_01_atom46.inp "" > CS_PdOAc_002_opt_01_atom46.out
Returned from the atomic calculation with res=0
Calculating cut-offs                               ... done
Initializing the effective Hamiltonian             ... done
Setting up the integral package (SHARK)            ... done
Starting the Coulomb interaction                   ... done (   0.2 sec)
Making the grid                                    ... done (   0.5 sec)
Mapping shells                                     ... done
Starting the XC term evaluation                    ... done (   0.1 sec)
  promolecular density results
     # of electrons  =    215.982443508
     EX              =   -386.883192940
     EC              =     -9.076910588
     EX+EC           =   -395.960103528
Transforming the Hamiltonian                       ... done (   0.1 sec)
Diagonalizing the Hamiltonian                      ... done (   0.0 sec)
Back transforming the eigenvectors                 ... done (   0.1 sec)
Now organizing SCF variables                       ... done
                      ------------------
                      INITIAL GUESS DONE (  13.1 sec)
                      ------------------
             **** ENERGY FILE WAS UPDATED (CS_PdOAc_002_opt_01.en.tmp) ****
Finished Guess after  14.8 sec
Maximum memory used throughout the entire GUESS-calculation: 22.7 MB


           ************************************************************
           *        Program running with 16 parallel MPI-processes    *
           *              working on a common directory               *
           ************************************************************

-------------------------------------------------------------------------------------------
                                      ORCA LEAN-SCF
                              memory conserving SCF solver
-------------------------------------------------------------------------------------------

----------------------------------------D-I-I-S--------------------------------------------
Iteration    Energy (Eh)           Delta-E    RMSDP     MaxDP     DIISErr   Damp  Time(sec)
-------------------------------------------------------------------------------------------
               ***  Starting incremental Fock matrix formation  ***
    1    -1167.4184123099851149     0.00e+00  1.45e-03  3.61e-02  4.70e-01  0.850   4.3
    2    -1167.5677658285496818    -1.49e-01  1.33e-03  3.22e-02  3.97e-01  0.850   4.3
                               ***Turning on AO-DIIS***
    3    -1167.6618649412478135    -9.41e-02  6.60e-04  2.04e-02  3.35e-01  0.850   3.7
    4    -1167.7209291378801481    -5.91e-02  4.28e-04  1.64e-02  2.83e-01  0.850   3.7
    5    -1167.7631270838830915    -4.22e-02  3.18e-04  1.35e-02  2.40e-01  0.850   3.7
    6    -1167.7964637536936152    -3.33e-02  2.65e-04  1.14e-02  2.04e-01  0.850   3.8
    7    -1167.8241206250625055    -2.77e-02  2.38e-04  9.87e-03  1.74e-01  0.850   3.7
    8    -1167.8472882858420689    -2.32e-02  2.08e-04  8.66e-03  1.48e-01  0.850   3.6
    9    -1167.8663508519782681    -1.91e-02  1.75e-04  7.40e-03  1.25e-01  0.850   3.8
   10    -1167.8820053316155736    -1.57e-02  1.46e-04  6.21e-03  1.06e-01  0.850   4.6
   11    -1167.8949453406214616    -1.29e-02  1.22e-04  5.22e-03  9.04e-02  0.850   3.7
   12    -1167.9057118101602555    -1.08e-02  1.02e-04  4.43e-03  7.68e-02  0.850   3.6
   13    -1167.9147047297858535    -8.99e-03  8.68e-05  3.79e-03  6.53e-02  0.850   4.4
   14    -1167.9222326380524919    -7.53e-03  7.34e-05  3.23e-03  5.55e-02  0.850   3.9
   15    -1167.9285479027341808    -6.32e-03  6.20e-05  2.73e-03  4.71e-02  0.850   3.7
   16    -1167.9338577639221057    -5.31e-03  5.22e-05  2.31e-03  4.00e-02  0.850   3.7
   17    -1167.9383308377416597    -4.47e-03  4.40e-05  1.96e-03  3.40e-02  0.850   3.6
   18    -1167.9421045210340253    -3.77e-03  3.72e-05  1.67e-03  2.89e-02  0.850   3.7
   19    -1167.9452919044936152    -3.19e-03  2.10e-04  9.47e-03  2.46e-02  0.000   3.6
                              *** Initializing SOSCF ***
---------------------------------------S-O-S-C-F--------------------------------------
Iteration    Energy (Eh)           Delta-E    RMSDP     MaxDP     MaxGrad    Time(sec)
--------------------------------------------------------------------------------------
   20    -1167.9630302076859607    -1.77e-02  1.35e-05  3.00e-04  3.82e-04     4.1
               *** Restarting incremental Fock matrix formation ***
   21    -1167.9629692669147971     6.09e-05  1.21e-05  2.81e-04  6.06e-05     4.4
   22    -1167.9629692964301739    -2.95e-08  5.57e-06  1.39e-04  9.71e-05     3.9
   23    -1167.9629697155526173    -4.19e-07  2.80e-06  1.03e-04  1.83e-05     4.2
   24    -1167.9629697284392478    -1.29e-08  2.20e-06  8.37e-05  2.03e-05     4.4
   25    -1167.9629697488478541    -2.04e-08  8.31e-07  3.00e-05  5.18e-06     3.3
   26    -1167.9629697461425621     2.71e-09  3.79e-07  1.49e-05  5.73e-06     3.2
                 **** Energy Check signals convergence ****

               *****************************************************
               *                     SUCCESS                       *
               *           SCF CONVERGED AFTER  26 CYCLES          *
               *****************************************************

Recomputing exchange energy using gridx3       ... done (    2.578 sec)
Old exchange energy                            :    -33.757153373 Eh
New exchange energy                            :    -33.757195322 Eh
Exchange energy change after final integration :     -0.000041949 Eh
Total energy after final integration           :  -1167.963011696 Eh
             **** ENERGY FILE WAS UPDATED (CS_PdOAc_002_opt_01.en.tmp) ****

----------------
TOTAL SCF ENERGY
----------------

Total Energy       :      -1167.96301169557341 Eh          -31781.88931 eV

Components:
Nuclear Repulsion  :       1792.22988279838160 Eh           48769.05448 eV
Electronic Energy  :      -2960.19285254452416 Eh          -80550.94265 eV
One Electron Energy:      -5271.15756070467523 Eh         -143435.48935 eV
Two Electron Energy:       2310.96470816015108 Eh           62884.54670 eV

Virial components:
Potential Energy   :      -2169.65155571025571 Eh          -59039.22033 eV
Kinetic Energy     :       1001.68854401468252 Eh           27257.33102 eV
Virial Ratio       :          2.16599417920313

DFT components:
N(Alpha)           :       79.999939929707 electrons
N(Beta)            :       79.999939929707 electrons
N(Total)           :      159.999879859413 electrons
E(X)               :     -101.459247217085 Eh       
E(C)               :       -5.786546422331 Eh       
E(XC)              :     -107.245793639415 Eh       

---------------
SCF CONVERGENCE
---------------

  Last Energy change         ...   -2.7053e-09  Tolerance :   1.0000e-08
  Last MAX-Density change    ...    1.4886e-05  Tolerance :   1.0000e-07
  Last RMS-Density change    ...    3.7855e-07  Tolerance :   5.0000e-09
  Last DIIS Error            ...    3.8231e-04  Tolerance :   5.0000e-07
  Last Orbital Gradient      ...    5.7302e-06  Tolerance :   1.0000e-05
  Last Orbital Rotation      ...    6.3639e-06  Tolerance :   1.0000e-05


----------------
ORBITAL ENERGIES
----------------

  NO   OCC          E(Eh)            E(eV) 
   0   2.0000     -19.245725      -523.7028 
   1   2.0000     -19.242801      -523.6232 
   2   2.0000     -19.239124      -523.5232 
   3   2.0000     -19.235143      -523.4149 
   4   2.0000     -19.229782      -523.2690 
   5   2.0000     -19.225477      -523.1518 
   6   2.0000     -19.225409      -523.1500 
   7   2.0000     -19.218070      -522.9503 
   8   2.0000     -10.374229      -282.2971 
   9   2.0000     -10.373747      -282.2840 
  10   2.0000     -10.362769      -281.9853 
  11   2.0000     -10.361891      -281.9614 
  12   2.0000     -10.250319      -278.9254 
  13   2.0000     -10.242353      -278.7086 
  14   2.0000     -10.236960      -278.5618 
  15   2.0000     -10.229613      -278.3619 
  16   2.0000      -3.542658       -96.4006 
  17   2.0000      -3.541807       -96.3775 
  18   2.0000      -2.229467       -60.6669 
  19   2.0000      -2.225989       -60.5722 
  20   2.0000      -2.220113       -60.4124 
  21   2.0000      -2.218632       -60.3720 
  22   2.0000      -2.177249       -59.2460 
  23   2.0000      -2.175917       -59.2097 
  24   2.0000      -1.136045       -30.9134 
  25   2.0000      -1.126368       -30.6500 
  26   2.0000      -1.119386       -30.4600 
  27   2.0000      -1.101962       -29.9859 
  28   2.0000      -1.037838       -28.2410 
  29   2.0000      -1.019458       -27.7409 
  30   2.0000      -1.016642       -27.6642 
  31   2.0000      -1.004914       -27.3451 
  32   2.0000      -0.781328       -21.2610 
  33   2.0000      -0.772847       -21.0302 
  34   2.0000      -0.764127       -20.7929 
  35   2.0000      -0.752924       -20.4881 
  36   2.0000      -0.635834       -17.3019 
  37   2.0000      -0.590978       -16.0813 
  38   2.0000      -0.574842       -15.6423 
  39   2.0000      -0.560175       -15.2431 
  40   2.0000      -0.552217       -15.0266 
  41   2.0000      -0.537113       -14.6156 
  42   2.0000      -0.526244       -14.3198 
  43   2.0000      -0.520734       -14.1699 
  44   2.0000      -0.511691       -13.9238 
  45   2.0000      -0.504231       -13.7208 
  46   2.0000      -0.503237       -13.6938 
  47   2.0000      -0.501520       -13.6471 
  48   2.0000      -0.493317       -13.4238 
  49   2.0000      -0.488554       -13.2942 
  50   2.0000      -0.483748       -13.1634 
  51   2.0000      -0.481925       -13.1138 
  52   2.0000      -0.433102       -11.7853 
  53   2.0000      -0.430428       -11.7125 
  54   2.0000      -0.424025       -11.5383 
  55   2.0000      -0.423198       -11.5158 
  56   2.0000      -0.419772       -11.4226 
  57   2.0000      -0.417866       -11.3707 
  58   2.0000      -0.414535       -11.2801 
  59   2.0000      -0.400436       -10.8964 
  60   2.0000      -0.386249       -10.5104 
  61   2.0000      -0.382692       -10.4136 
  62   2.0000      -0.375195       -10.2096 
  63   2.0000      -0.370142       -10.0721 
  64   2.0000      -0.362154        -9.8547 
  65   2.0000      -0.354062        -9.6345 
  66   2.0000      -0.346470        -9.4279 
  67   2.0000      -0.336920        -9.1681 
  68   2.0000      -0.332024        -9.0348 
  69   2.0000      -0.324119        -8.8197 
  70   2.0000      -0.319694        -8.6993 
  71   2.0000      -0.310358        -8.4453 
  72   2.0000      -0.299215        -8.1421 
  73   2.0000      -0.290574        -7.9069 
  74   2.0000      -0.285781        -7.7765 
  75   2.0000      -0.278856        -7.5881 
  76   2.0000      -0.273474        -7.4416 
  77   2.0000      -0.267677        -7.2839 
  78   2.0000      -0.259872        -7.0715 
  79   2.0000      -0.254533        -6.9262 
  80   0.0000      -0.110566        -3.0087 
  81   0.0000      -0.087030        -2.3682 
  82   0.0000      -0.013799        -0.3755 
  83   0.0000      -0.000291        -0.0079 
  84   0.0000       0.014149         0.3850 
  85   0.0000       0.021027         0.5722 
  86   0.0000       0.024040         0.6542 
  87   0.0000       0.042909         1.1676 
  88   0.0000       0.045500         1.2381 
  89   0.0000       0.058397         1.5891 
  90   0.0000       0.061335         1.6690 
*Only the first 10 virtual orbitals were printed.

                    ********************************
                    * MULLIKEN POPULATION ANALYSIS *
                    ********************************

-----------------------
MULLIKEN ATOMIC CHARGES
-----------------------
   0 Pd:    0.475701
   1 O :   -0.378192
   2 O :   -0.373529
   3 C :    0.331967
   4 C :   -0.367059
   5 H :    0.164729
   6 H :    0.166521
   7 H :    0.165724
   8 O :   -0.360634
   9 C :    0.335068
  10 O :   -0.323370
  11 C :   -0.332244
  12 H :    0.164778
  13 H :    0.174490
  14 H :    0.165142
  15 O :   -0.327456
  16 Pd:    0.494745
  17 O :   -0.380701
  18 C :    0.333896
  19 H :    0.157984
  20 H :    0.169110
  21 C :   -0.329644
  22 H :    0.161675
  23 O :   -0.374582
  24 C :    0.314830
  25 O :   -0.342834
  26 C :   -0.367506
  27 H :    0.163423
  28 H :    0.160133
  29 H :    0.157835
Sum of atomic charges:   -0.0000000

--------------------------------
MULLIKEN REDUCED ORBITAL CHARGES
--------------------------------
  0 Pds       :     2.471348  s :     2.471348
      pz      :     2.114335  p :     6.348806
      px      :     2.140195
      py      :     2.094276
      dz2     :     1.999395  d :     8.704145
      dxz     :     1.256966
      dyz     :     1.883987
      dx2y2   :     1.845484
      dxy     :     1.718313

  1 O s       :     3.771033  s :     3.771033
      pz      :     1.641538  p :     4.592627
      px      :     1.300023
      py      :     1.651065
      dz2     :     0.002232  d :     0.014532
      dxz     :     0.003209
      dyz     :     0.000623
      dx2y2   :     0.004750
      dxy     :     0.003718

  2 O s       :     3.772261  s :     3.772261
      pz      :     1.519188  p :     4.580909
      px      :     1.537137
      py      :     1.524584
      dz2     :     0.003789  d :     0.020359
      dxz     :     0.005129
      dyz     :     0.002890
      dx2y2   :     0.003917
      dxy     :     0.004634

  3 C s       :     3.053498  s :     3.053498
      pz      :     0.859042  p :     2.472642
      px      :     0.810187
      py      :     0.803412
      dz2     :     0.023038  d :     0.141894
      dxz     :     0.039081
      dyz     :     0.011434
      dx2y2   :     0.032165
      dxy     :     0.036176

  4 C s       :     3.144113  s :     3.144113
      pz      :     1.030284  p :     3.194556
      px      :     1.091770
      py      :     1.072502
      dz2     :     0.006696  d :     0.028390
      dxz     :     0.002842
      dyz     :     0.006884
      dx2y2   :     0.006882
      dxy     :     0.005087

  5 H s       :     0.835271  s :     0.835271

  6 H s       :     0.833479  s :     0.833479

  7 H s       :     0.834276  s :     0.834276

  8 O s       :     3.834667  s :     3.834667
      pz      :     1.447254  p :     4.509096
      px      :     1.479665
      py      :     1.582177
      dz2     :     0.004575  d :     0.016871
      dxz     :     0.004262
      dyz     :     0.003592
      dx2y2   :     0.001468
      dxy     :     0.002974

  9 C s       :     3.035308  s :     3.035308
      pz      :     0.794450  p :     2.487907
      px      :     0.891657
      py      :     0.801800
      dz2     :     0.034264  d :     0.141717
      dxz     :     0.026694
      dyz     :     0.027317
      dx2y2   :     0.028321
      dxy     :     0.025120

 10 O s       :     3.836878  s :     3.836878
      pz      :     1.531671  p :     4.469403
      px      :     1.489047
      py      :     1.448684
      dz2     :     0.002935  d :     0.017089
      dxz     :     0.003372
      dyz     :     0.004572
      dx2y2   :     0.003187
      dxy     :     0.003022

 11 C s       :     3.089434  s :     3.089434
      pz      :     1.101770  p :     3.214573
      px      :     1.018173
      py      :     1.094630
      dz2     :     0.004099  d :     0.028237
      dxz     :     0.004678
      dyz     :     0.008138
      dx2y2   :     0.004777
      dxy     :     0.006544

 12 H s       :     0.835222  s :     0.835222

 13 H s       :     0.825510  s :     0.825510

 14 H s       :     0.834858  s :     0.834858

 15 O s       :     3.831670  s :     3.831670
      pz      :     1.507779  p :     4.478742
      px      :     1.440937
      py      :     1.530026
      dz2     :     0.003306  d :     0.017044
      dxz     :     0.004217
      dyz     :     0.003958
      dx2y2   :     0.002101
      dxy     :     0.003461

 16 Pds       :     2.495605  s :     2.495605
      pz      :     2.108714  p :     6.360421
      px      :     2.161745
      py      :     2.089962
      dz2     :     1.939654  d :     8.649230
      dxz     :     1.355567
      dyz     :     1.816803
      dx2y2   :     1.949304
      dxy     :     1.587901

 17 O s       :     3.830470  s :     3.830470
      pz      :     1.490639  p :     4.533564
      px      :     1.521802
      py      :     1.521122
      dz2     :     0.003697  d :     0.016667
      dxz     :     0.003787
      dyz     :     0.004031
      dx2y2   :     0.001934
      dxy     :     0.003217

 18 C s       :     3.033875  s :     3.033875
      pz      :     0.793705  p :     2.490530
      px      :     0.907395
      py      :     0.789429
      dz2     :     0.034187  d :     0.141699
      dxz     :     0.028571
      dyz     :     0.023014
      dx2y2   :     0.031284
      dxy     :     0.024644

 19 H s       :     0.842016  s :     0.842016

 20 H s       :     0.830890  s :     0.830890

 21 C s       :     3.086254  s :     3.086254
      pz      :     1.097355  p :     3.214984
      px      :     1.013309
      py      :     1.104320
      dz2     :     0.006413  d :     0.028406
      dxz     :     0.003947
      dyz     :     0.005978
      dx2y2   :     0.008003
      dxy     :     0.004064

 22 H s       :     0.838325  s :     0.838325

 23 O s       :     3.769791  s :     3.769791
      pz      :     1.589573  p :     4.590306
      px      :     1.328174
      py      :     1.672559
      dz2     :     0.002068  d :     0.014485
      dxz     :     0.003655
      dyz     :     0.000892
      dx2y2   :     0.004629
      dxy     :     0.003241

 24 C s       :     3.051354  s :     3.051354
      pz      :     0.833135  p :     2.491181
      px      :     0.816960
      py      :     0.841086
      dz2     :     0.018483  d :     0.142635
      dxz     :     0.033722
      dyz     :     0.014197
      dx2y2   :     0.039292
      dxy     :     0.036941

 25 O s       :     3.779805  s :     3.779805
      pz      :     1.561098  p :     4.547443
      px      :     1.509763
      py      :     1.476583
      dz2     :     0.002199  d :     0.015586
      dxz     :     0.002960
      dyz     :     0.001733
      dx2y2   :     0.003653
      dxy     :     0.005041

 26 C s       :     3.144205  s :     3.144205
      pz      :     1.043139  p :     3.194875
      px      :     1.091352
      py      :     1.060384
      dz2     :     0.002291  d :     0.028427
      dxz     :     0.008674
      dyz     :     0.007616
      dx2y2   :     0.007614
      dxy     :     0.002231

 27 H s       :     0.836577  s :     0.836577

 28 H s       :     0.839867  s :     0.839867

 29 H s       :     0.842165  s :     0.842165



                     *******************************
                     * LOEWDIN POPULATION ANALYSIS *
                     *******************************

----------------------
LOEWDIN ATOMIC CHARGES
----------------------
   0 Pd:   -0.092683
   1 O :   -0.088885
   2 O :   -0.025467
   3 C :    0.136791
   4 C :   -0.345569
   5 H :    0.150347
   6 H :    0.147231
   7 H :    0.155093
   8 O :   -0.102620
   9 C :    0.119496
  10 O :   -0.079685
  11 C :   -0.355129
  12 H :    0.153542
  13 H :    0.162691
  14 H :    0.154411
  15 O :   -0.096605
  16 Pd:   -0.131740
  17 O :   -0.125667
  18 C :    0.114113
  19 H :    0.150102
  20 H :    0.159695
  21 C :   -0.355735
  22 H :    0.151734
  23 O :   -0.091676
  24 C :    0.123985
  25 O :   -0.081935
  26 C :   -0.349648
  27 H :    0.153802
  28 H :    0.147257
  29 H :    0.142755

-------------------------------
LOEWDIN REDUCED ORBITAL CHARGES
-------------------------------
  0 Pds       :     2.449957  s :     2.449957
      pz      :     2.201928  p :     6.595675
      px      :     2.240881
      py      :     2.152867
      dz2     :     2.044919  d :     9.047051
      dxz     :     1.377629
      dyz     :     1.952413
      dx2y2   :     1.891778
      dxy     :     1.780311

  1 O s       :     3.452352  s :     3.452352
      pz      :     1.596699  p :     4.608778
      px      :     1.400525
      py      :     1.611554
      dz2     :     0.004437  d :     0.027755
      dxz     :     0.006382
      dyz     :     0.000928
      dx2y2   :     0.010561
      dxy     :     0.005446

  2 O s       :     3.417953  s :     3.417953
      pz      :     1.493805  p :     4.564999
      px      :     1.570091
      py      :     1.501103
      dz2     :     0.007279  d :     0.042515
      dxz     :     0.011336
      dyz     :     0.007659
      dx2y2   :     0.006780
      dxy     :     0.009460

  3 C s       :     2.816072  s :     2.816072
      pz      :     0.936348  p :     2.736913
      px      :     0.952874
      py      :     0.847691
      dz2     :     0.050989  d :     0.310224
      dxz     :     0.083154
      dyz     :     0.024681
      dx2y2   :     0.074649
      dxy     :     0.076750

  4 C s       :     2.960386  s :     2.960386
      pz      :     1.075687  p :     3.318416
      px      :     1.130044
      py      :     1.112686
      dz2     :     0.016482  d :     0.066766
      dxz     :     0.006799
      dyz     :     0.016967
      dx2y2   :     0.015652
      dxy     :     0.010867

  5 H s       :     0.849653  s :     0.849653

  6 H s       :     0.852769  s :     0.852769

  7 H s       :     0.844907  s :     0.844907

  8 O s       :     3.501842  s :     3.501842
      pz      :     1.504543  p :     4.571465
      px      :     1.488918
      py      :     1.578003
      dz2     :     0.006440  d :     0.029313
      dxz     :     0.009004
      dyz     :     0.006211
      dx2y2   :     0.002632
      dxy     :     0.005026

  9 C s       :     2.831540  s :     2.831540
      pz      :     0.880417  p :     2.745744
      px      :     0.993878
      py      :     0.871449
      dz2     :     0.069264  d :     0.303220
      dxz     :     0.059098
      dyz     :     0.062354
      dx2y2   :     0.058591
      dxy     :     0.053914

 10 O s       :     3.511145  s :     3.511145
      pz      :     1.550991  p :     4.539377
      px      :     1.491226
      py      :     1.497161
      dz2     :     0.003717  d :     0.029163
      dxz     :     0.005472
      dyz     :     0.008780
      dx2y2   :     0.005111
      dxy     :     0.006083

 11 C s       :     2.952493  s :     2.952493
      pz      :     1.133886  p :     3.335465
      px      :     1.073607
      py      :     1.127972
      dz2     :     0.009385  d :     0.067171
      dxz     :     0.011521
      dyz     :     0.017957
      dx2y2   :     0.011864
      dxy     :     0.016444

 12 H s       :     0.846458  s :     0.846458

 13 H s       :     0.837309  s :     0.837309

 14 H s       :     0.845589  s :     0.845589

 15 O s       :     3.515506  s :     3.515506
      pz      :     1.538448  p :     4.551815
      px      :     1.462672
      py      :     1.550695
      dz2     :     0.004197  d :     0.029284
      dxz     :     0.007779
      dyz     :     0.007389
      dx2y2   :     0.003435
      dxy     :     0.006483

 16 Pds       :     2.473107  s :     2.473107
      pz      :     2.209183  p :     6.636646
      px      :     2.268565
      py      :     2.158898
      dz2     :     1.993455  d :     9.021986
      dxz     :     1.461653
      dyz     :     1.907481
      dx2y2   :     1.988514
      dxy     :     1.670884

 17 O s       :     3.498853  s :     3.498853
      pz      :     1.533253  p :     4.597557
      px      :     1.522692
      py      :     1.541611
      dz2     :     0.004748  d :     0.029257
      dxz     :     0.007676
      dyz     :     0.007511
      dx2y2   :     0.003185
      dxy     :     0.006137

 18 C s       :     2.829978  s :     2.829978
      pz      :     0.871621  p :     2.751543
      px      :     1.034109
      py      :     0.845813
      dz2     :     0.068628  d :     0.304366
      dxz     :     0.062800
      dyz     :     0.054156
      dx2y2   :     0.066569
      dxy     :     0.052213

 19 H s       :     0.849898  s :     0.849898

 20 H s       :     0.840305  s :     0.840305

 21 C s       :     2.952654  s :     2.952654
      pz      :     1.133123  p :     3.335561
      px      :     1.066941
      py      :     1.135498
      dz2     :     0.014984  d :     0.067521
      dxz     :     0.009864
      dyz     :     0.012408
      dx2y2   :     0.020186
      dxy     :     0.010079

 22 H s       :     0.848266  s :     0.848266

 23 O s       :     3.454045  s :     3.454045
      pz      :     1.561314  p :     4.609716
[...]

  7 H s       :     0.843814  s :     0.843814

  8 O s       :     3.499089  s :     3.499089
      pz      :     1.410043  p :     4.569961
      px      :     1.563731
      py      :     1.596187
      dz2     :     0.015064  d :     0.028804
      dxz     :     0.005740
      dyz     :     0.005312
      dx2y2   :     0.001595
      dxy     :     0.001093

  9 C s       :     2.828793  s :     2.828793
      pz      :     0.975549  p :     2.743088
      px      :     0.764040
      py      :     1.003499
      dz2     :     0.078712  d :     0.304690
      dxz     :     0.044697
      dyz     :     0.110573
      dx2y2   :     0.034942
      dxy     :     0.035766

 10 O s       :     3.499033  s :     3.499033
      pz      :     1.606461  p :     4.568566
      px      :     1.565053
      py      :     1.397052
      dz2     :     0.004795  d :     0.028825
      dxz     :     0.001723
      dyz     :     0.009025
      dx2y2   :     0.008579
      dxy     :     0.004703

 11 C s       :     2.952789  s :     2.952789
      pz      :     1.110410  p :     3.333588
      px      :     1.133026
      py      :     1.090153
      dz2     :     0.009518  d :     0.067047
      dxz     :     0.012277
      dyz     :     0.020638
      dx2y2   :     0.014130
      dxy     :     0.010485

 12 H s       :     0.845121  s :     0.845121

 13 H s       :     0.841826  s :     0.841826

 14 H s       :     0.846976  s :     0.846976

 15 O s       :     3.499284  s :     3.499284
      pz      :     1.414361  p :     4.568597
      px      :     1.553546
      py      :     1.600690
      dz2     :     0.014420  d :     0.028810
      dxz     :     0.005389
      dyz     :     0.006077
      dx2y2   :     0.001367
      dxy     :     0.001557

 16 Pds       :     2.432082  s :     2.432082
      pz      :     2.241580  p :     6.632794
      px      :     2.165649
      py      :     2.225565
      dz2     :     1.381705  d :     9.066556
      dxz     :     1.911501
      dyz     :     2.019824
      dx2y2   :     1.903426
      dxy     :     1.850100

 17 O s       :     3.498960  s :     3.498960
      pz      :     1.605636  p :     4.570292
      px      :     1.534604
      py      :     1.430052
      dz2     :     0.004723  d :     0.028795
      dxz     :     0.002866
      dyz     :     0.007827
      dx2y2   :     0.007127
      dxy     :     0.006252

 18 C s       :     2.828749  s :     2.828749
      pz      :     0.971225  p :     2.743144
      px      :     0.818743
      py      :     0.953175
      dz2     :     0.077414  d :     0.304685
      dxz     :     0.054525
      dyz     :     0.098618
      dx2y2   :     0.035115
      dxy     :     0.039014

 19 H s       :     0.847128  s :     0.847128

 20 H s       :     0.841925  s :     0.841925

 21 C s       :     2.952763  s :     2.952763
      pz      :     1.111471  p :     3.333631
      px      :     1.118935
      py      :     1.103224
      dz2     :     0.003765  d :     0.067049
      dxz     :     0.018971
      dyz     :     0.020955
      dx2y2   :     0.003665
      dxy     :     0.019692

 22 H s       :     0.844966  s :     0.844966

 23 O s       :     3.456954  s :     3.456954
      pz      :     1.561501  p :     4.588992
      px      :     1.433825
      py      :     1.593666
      dz2     :     0.003655  d :     0.028602
      dxz     :     0.005532
      dyz     :     0.001145
      dx2y2   :     0.011777
      dxy     :     0.006494

 24 C s       :     2.816954  s :     2.816954
      pz      :     0.767848  p :     2.741683
      px      :     0.962435
      py      :     1.011399
      dz2     :     0.018705  d :     0.309709
      dxz     :     0.063192
      dyz     :     0.020354
      dx2y2   :     0.110491
      dxy     :     0.096967

 25 O s       :     3.457177  s :     3.457177
      pz      :     1.564066  p :     4.588174
      px      :     1.566684
      py      :     1.457423
      dz2     :     0.003699  d :     0.028606
      dxz     :     0.003538
      dyz     :     0.002898
      dx2y2   :     0.006648
      dxy     :     0.011822

 26 C s       :     2.958531  s :     2.958531
      pz      :     1.133807  p :     3.320003
      px      :     1.133834
      py      :     1.052362
      dz2     :     0.011921  d :     0.066811
      dxz     :     0.013657
      dyz     :     0.011516
      dx2y2   :     0.018661
      dxy     :     0.011057

 27 H s       :     0.843835  s :     0.843835

 28 H s       :     0.851591  s :     0.851591

 29 H s       :     0.852234  s :     0.852234



                      *****************************
                      * MAYER POPULATION ANALYSIS *
                      *****************************

  NA   - Mulliken gross atomic population
  ZA   - Total nuclear charge
  QA   - Mulliken gross atomic charge
  VA   - Mayer's total valence
  BVA  - Mayer's bonded valence
  FA   - Mayer's free valence

  ATOM       NA         ZA         QA         VA         BVA        FA
  0 Pd    17.5557    18.0000     0.4443     2.6365     2.6365     0.0000
  1 O      8.3583     8.0000    -0.3583     2.2006     2.2006     0.0000
  2 O      8.3574     8.0000    -0.3574     2.2059     2.2059     0.0000
  3 C      5.6702     6.0000     0.3298     4.1484     4.1484    -0.0000
  4 C      6.3527     6.0000    -0.3527     3.8817     3.8817     0.0000
  5 H      0.8370     1.0000     0.1630     0.9527     0.9527     0.0000
  6 H      0.8376     1.0000     0.1624     0.9533     0.9533     0.0000
  7 H      0.8335     1.0000     0.1665     0.9457     0.9457     0.0000
  8 O      8.3484     8.0000    -0.3484     2.1937     2.1937     0.0000
  9 C      5.6700     6.0000     0.3300     4.0924     4.0924     0.0000
 10 O      8.3472     8.0000    -0.3472     2.2004     2.2004     0.0000
 11 C      6.3298     6.0000    -0.3298     3.8955     3.8955     0.0000
 12 H      0.8337     1.0000     0.1663     0.9538     0.9538     0.0000
 13 H      0.8328     1.0000     0.1672     0.9479     0.9479    -0.0000
 14 H      0.8354     1.0000     0.1646     0.9554     0.9554     0.0000
 15 O      8.3469     8.0000    -0.3469     2.2015     2.2015     0.0000
 16 Pd    17.5558    18.0000     0.4442     2.6362     2.6362    -0.0000
 17 O      8.3488     8.0000    -0.3488     2.1927     2.1927     0.0000
 18 C      5.6701     6.0000     0.3299     4.0929     4.0929     0.0000
 19 H      0.8354     1.0000     0.1646     0.9555     0.9555     0.0000
 20 H      0.8330     1.0000     0.1670     0.9480     0.9480     0.0000
 21 C      6.3299     6.0000    -0.3299     3.8953     3.8953    -0.0000
 22 H      0.8336     1.0000     0.1664     0.9537     0.9537    -0.0000
 23 O      8.3587     8.0000    -0.3587     2.2012     2.2012     0.0000
 24 C      5.6706     6.0000     0.3294     4.1489     4.1489     0.0000
 25 O      8.3573     8.0000    -0.3573     2.2052     2.2052     0.0000
 26 C      6.3515     6.0000    -0.3515     3.8821     3.8821     0.0000
 27 H      0.8338     1.0000     0.1662     0.9458     0.9458     0.0000
 28 H      0.8371     1.0000     0.1629     0.9528     0.9528    -0.0000
 29 H      0.8377     1.0000     0.1623     0.9532     0.9532    -0.0000

  Mayer bond orders larger than 0.100000
B(  0-Pd,  1-O ) :   0.5248 B(  0-Pd,  8-O ) :   0.5866 B(  0-Pd, 10-O ) :   0.5864 
B(  0-Pd, 16-Pd) :   0.1677 B(  0-Pd, 25-O ) :   0.5249 B(  1-O ,  3-C ) :   1.4853 
B(  2-O ,  3-C ) :   1.4894 B(  2-O , 16-Pd) :   0.5252 B(  3-C ,  4-C ) :   1.0725 
B(  4-C ,  5-H ) :   0.9387 B(  4-C ,  6-H ) :   0.9398 B(  4-C ,  7-H ) :   0.9257 
B(  8-O ,  9-C ) :   1.4331 B(  9-C , 10-O ) :   1.4376 B(  9-C , 11-C ) :   1.1195 
B( 11-C , 12-H ) :   0.9287 B( 11-C , 13-H ) :   0.9204 B( 11-C , 14-H ) :   0.9308 
B( 15-O , 16-Pd) :   0.5846 B( 15-O , 18-C ) :   1.4402 B( 16-Pd, 17-O ) :   0.5874 
B( 16-Pd, 23-O ) :   0.5250 B( 17-O , 18-C ) :   1.4312 B( 18-C , 21-C ) :   1.1192 
B( 19-H , 21-C ) :   0.9310 B( 20-H , 21-C ) :   0.9205 B( 21-C , 22-H ) :   0.9286 
B( 23-O , 24-C ) :   1.4853 B( 24-C , 25-O ) :   1.4892 B( 24-C , 26-C ) :   1.0729 
B( 26-C , 27-H ) :   0.9257 B( 26-C , 28-H ) :   0.9388 B( 26-C , 29-H ) :   0.9396 


-------
TIMINGS
-------

Total SCF time: 0 days 0 hours 0 min 31 sec 

Total time                  ....      31.720 sec
Sum of individual times     ....      30.288 sec  ( 95.5%)

SCF preparation             ....       2.065 sec  (  6.5%)
Fock matrix formation       ....      21.593 sec  ( 68.1%)
  Startup                   ....       1.754 sec  (  8.1% of F)
  Split-RI-J                ....       3.272 sec  ( 15.2% of F)
  Chain of spheres X        ....      11.474 sec  ( 53.1% of F)
  XC integration            ....       3.368 sec  ( 15.6% of F)
    XC Preparation          ....       0.000 sec  (  0.0% of XC)
    Basis function eval.    ....       0.325 sec  (  9.6% of XC)
    Density eval.           ....       0.167 sec  (  5.0% of XC)
    XC-Functional eval.     ....       0.061 sec  (  1.8% of XC)
    XC-Potential eval.      ....       0.136 sec  (  4.0% of XC)
Diagonalization             ....       0.000 sec  (  0.0%)
Density matrix formation    ....       1.906 sec  (  6.0%)
Total Energy calculation    ....       1.094 sec  (  3.5%)
Population analysis         ....       0.882 sec  (  2.8%)
Orbital Transformation      ....       0.308 sec  (  1.0%)
Orbital Orthonormalization  ....       0.000 sec  (  0.0%)
DIIS solution               ....       0.489 sec  (  1.5%)
SOSCF solution              ....       1.950 sec  (  6.1%)
Finished LeanSCF after  32.3 sec

Maximum memory used throughout the entire LEANSCF-calculation: 39.0 MB


-------------------------------------------------------------------------------
                          DFT DISPERSION CORRECTION                            
                                                                               
                              DFTD3 V3.1  Rev 1                                
                          USING Becke-Johnson damping                          
-------------------------------------------------------------------------------
The PBE0 functional is recognized
Active option DFTDOPT                   ...         4   

molecular C6(AA) [au] = 13175.718293 


            DFT-D V3
 parameters
 s6 scaling factor         :     1.0000 
 a1 scaling factor         :     0.4145 
 s8 scaling factor         :     1.2177 
 a2 scaling factor         :     4.8593 
 ad hoc parameters k1-k3   :    16.0000     1.3333    -4.0000 

 Edisp/kcal,au: -19.723443561054  -0.031431304661 
 E6   /kcal   : -11.510029403 
 E8   /kcal   :  -8.213414158 
 % E8         :  41.642901416 

-------------------------   ----------------
Dispersion correction           -0.031431305
-------------------------   ----------------


-------------------------   --------------------
FINAL SINGLE POINT ENERGY     -1168.103611027297
-------------------------   --------------------

                                *** OPTIMIZATION RUN DONE ***



           ************************************************************
           *        Program running with 16 parallel MPI-processes    *
           *              working on a common directory               *
           ************************************************************

------------------------------------------------------------------------------
                              ORCA PROPERTY CALCULATIONS
------------------------------------------------------------------------------

GBWName                                 ... CS_PdOAc_002_opt_01.gbw
Number of atoms                         ...     30
Number of basis functions               ...    296
Max core memory                         ...   3500 MB

Electric properties:
Dipole moment                           ... YES
Quadrupole moment                       ...  NO
Static polarizability (Dipole/Dipole)   ...  NO
Static polarizability (Dipole/Quad.)    ...  NO
Static polarizability (Quad./Quad.)     ...  NO
Static polarizability (Velocity)        ...  NO

Atomic electric properties:
Dipole moment                           ...  NO
Quadrupole moment                       ...  NO
Static polarizability                   ...  NO

Choice of electric origin               ... Center of mass
Position of electric origin             ...     0.937214     2.331042    -0.201412

General magnetic properties:
Magnetizability                         ...  NO

EPR properties:
g-Tensor (aka g-matrix)                 ...  NO
Zero-Field splitting spin-orbit         ...  NO
Zero-field splitting spin-spin          ...  NO
Hyperfine couplings                     ...  NO (   0 nuclei)
Quadrupole couplings                    ...  NO (   0 nuclei)
Contact density                         ...  NO (   0 nuclei)

NMR properties:
Chemical shifts                         ...  NO (   0 nuclei)
Spin-rotation constants                 ...  NO (   0 nuclei)
Spin-spin couplings                     ...  NO (   0 nuclei,    0 pairs)

Choice of magnetic origin               ... GIAO
Position of magnetic origin             ...     0.000000     0.000000     0.000000

Properties with geometric perturbations:
SCF Hessian                             ...  NO
IR spectrum                             ...  NO
VCD spectrum                            ...  NO
X-ray spectroscopy properties:
SCF XES/XAS/RIXS spectra                ...  NO


-------------
DIPOLE MOMENT
-------------

Method             : SCF
Type of density    : Electron Density
Multiplicity       :   1
Irrep              :   0
Energy             : -1168.0721797226356102 Eh
Relativity type    : 
Basis              : AO
                                X                 Y                 Z
Electronic contribution:     -3.807557783     -15.752072240     -12.851076363
Nuclear contribution   :      3.918704490      16.204977420      13.222421659
                        -----------------------------------------
Total Dipole Moment    :      0.111146707       0.452905181       0.371345296
                        -----------------------------------------
Magnitude (a.u.)       :      0.596132554
Magnitude (Debye)      :      1.515248534



--------------------
Rotational spectrum 
--------------------
 
Rotational constants in cm-1:             0.010011             0.009691             0.007268 
Rotational constants in MHz :           300.130587           290.515305           217.877806 

Dipole components along the rotational axes: 
x,y,z [a.u.] :     0.595894     0.016257     0.004429 
x,y,z [Debye]:     1.514643     0.041322     0.011258 

 

Dipole moment calculation done in   0.3 sec 

Maximum memory used throughout the entire PROP-calculation: 18.1 MB

--------------------------------
SUGGESTED CITATIONS FOR THIS RUN
--------------------------------

Below you find a list of papers that are relevant to this ORCA run
We neither can nor want to force you to cite these papers, but we appreciate if you do
You receive ORCA, which is the product of decades of hard work by many enthusiastic individuals, for free
The only thing we kindly ask in return is that you cite our papers,
We deeply appreciate it, if you show your appreciation for ORCA by not just citing the generic ORCA reference.

Please note that relegating all ORCA citations to the supporting information does *not* help us.
SI sections are not indexed - citations you put there will not count into any citation statistics
But we need these citations in order to attract the funding resources that allow us to do what we are doing

Therefore, if you are a happy ORCA user, please consider citing a few of the papers listed below in the main body of your paper

In addition to the list printed below, the program has created the file CS_PdOAc_002_opt_01.bibtex that contains the list in bibtex format
You can import this file easily into all common literature databanks and citation aid programs


List of essential papers. We consider these as the minimum necessary citations

  1. Neese,F.
     Software update: the ORCA program system, version 5.0
     WIRES Comput. Molec. Sci., 2022 12(1)e1606
     doi.org/10.1002/wcms.1606

List of papers to cite with high priority. The work reported in these papers was absolutely
necessary for this run to complete.
Our perspective: the developers of density functionals and basis sets usually get cited in chemistry papers
Good! But without the algorithms to do something with them, the functionals or basis sets would not do anything.
Hence, in our opinion, the algorithm design and method developments papers are equally worthy of getting cited

  1. Neese,F.
     An improvement of the resolution of the identity approximation for the formation of the Coulomb matrix
     J. Comp. Chem., 2003 24(14)1740-1747
     doi.org/10.1002/jcc.10318
  2. Neese,F.; Wennmohs,F.; Hansen,A.; Becker,U.
     Efficient, approximate and parallel Hartree-Fock and hybrid DFT calculations. A 'chain-of-spheres' algorithm for the Hartree-Fock exchange
     Chem. Phys., 2009 356(1-3)98-109
     doi.org/10.1016/j.chemphys.2008.10.036
  3. Helmich-Paris,B.; de Souza,B.; Neese,F.; Izsák,R.
     An improved chain of spheres for exchange algorithm
     J. Chem. Phys., 2021 155 104109
     doi.org/doi: 10.1063/5.0058766.
  4. Neese,F.
     The SHARK Integral Generation and Digestion System
     J. Comp. Chem., 2022  1-16
     doi.org/10.1002/jcc.26942
  5. Grimme,S.; Antony,J.; Ehrlich,S.; Krieg,H.
     A consistent and accurate ab initio parametrization of density functional dispersion correction (DFT-D) for the 94 elements H-Pu
     J. Chem. Phys., 2010 132 154104-XXXX
     doi.org/10.1063/1.3382344
  6. Grimme,S.; Ehrlich,S.; Goerigk,L.
     Effect of the damping function in dispersion corrected density functional theory
     J. Comput. Chem., 2011 32(7)1456-1465
     doi.org/10.1002/jcc.21759

List of suggested additional citations. These are papers that are important in the 'surrounding' of 
of this run, or papers that preceded the highly important papers. If you like your results we are grateful for a citation.

  1. Izsak,R.; Neese,F.
     An overlap fitted chain of spheres exchange method
     J. Chem. Phys., 2011 135 144105
     doi.org/10.1063/1.3646921
  2. Izsak,R.; Hansen,A.; Neese,F.
     The resolution of identity and chain of spheres approximations for the LPNO-CCSD singles Fock term
     Molec. Phys., 2012 110 2413-2417
     doi.org/10.1080/00268976.2012.687466
  3. Neese,F.
     The ORCA program system
     WIRES Comput. Molec. Sci., 2012 2(1)73-78
     doi.org/10.1002/wcms.81
  4. Izsak,R.; Neese,F.; Klopper,W.
     Robust fitting techniques in the chain of spheres approximation to the Fock exchange: The role of the complementary space
     J. Chem. Phys., 2013 139 
     doi.org/10.1063/1.4819264
  5. Neese,F.
     Software update: the ORCA program system, version 4.0
     WIRES Comput. Molec. Sci., 2018 8(1)1-6
     doi.org/10.1002/wcms.1327
  6. Neese,F.; Wennmohs,F.; Becker,U.; Riplinger,C.
     The ORCA quantum chemistry program package
     J. Chem. Phys., 2020 152 Art. No. L224108
     doi.org/10.1063/5.0004608

List of optional additional citations

  1. Neese,F.
     Approximate second-order SCF convergence for spin unrestricted wavefunctions
     Chem. Phys. Lett., 2000 325(1-3)93-98
     doi.org/10.1016/s0009-2614(00)00662-x

Timings for individual modules:

Sum of individual times          ...     3449.031 sec (=  57.484 min)
Startup calculation              ...      282.310 sec (=   4.705 min)   8.2 %
SCF iterations                   ...     2623.418 sec (=  43.724 min)  76.1 %
Property calculations            ...        2.233 sec (=   0.037 min)   0.1 %
SCF Gradient evaluation          ...      538.058 sec (=   8.968 min)  15.6 %
Geometry relaxation              ...        3.012 sec (=   0.050 min)   0.1 %
                             ****ORCA TERMINATED NORMALLY****
TOTAL RUN TIME: 0 days 1 hours 0 minutes 14 seconds 35 msec
