
                                 *****************
                                 * O   R   C   A *
                                 *****************

                                            #,                                       
                                            ###                                      
                                            ####                                     
                                            #####                                    
                                            ######                                   
                                           ########,                                 
                                     ,,################,,,,,                         
                               ,,#################################,,                 
                          ,,##########################################,,             
                       ,#########################################, ''#####,          
                    ,#############################################,,   '####,        
                  ,##################################################,,,,####,       
                ,###########''''           ''''###############################       
              ,#####''   ,,,,##########,,,,          '''####'''          '####       
            ,##' ,,,,###########################,,,                        '##       
           ' ,,###''''                  '''############,,,                           
         ,,##''                                '''############,,,,        ,,,,,,###''
      ,#''                                            '''#######################'''  
     '                                                          ''''####''''         
             ,#######,   #######,   ,#######,      ##                                
            ,#'     '#,  ##    ##  ,#'     '#,    #''#        ,####,   ,####,        
            ##       ##  ##   ,#'  ##            #'  '#       #'       #'  '#        
            ##       ##  #######   ##           ,######,      #####,   #    #        
            '#,     ,#'  ##    ##  '#,     ,#' ,#      #,     #,   #   #,  ,#        
             '#######'   ##     ##  '#######'  #'      '#     '####' # '####'        



                #########################################################
                #                        -***-                          #
                #          Department of theory and spectroscopy        #
                #                                                       #
                #                      Frank Neese                      #
                #                                                       #
                #     Directorship, Architecture, Infrastructure        #
                #                    SHARK, DRIVERS                     #
                #        Core code/Algorithms in most modules           #
                #                                                       #
                #        Max Planck Institute fuer Kohlenforschung      #
                #                Kaiser Wilhelm Platz 1                 #
                #                 D-45470 Muelheim/Ruhr                 #
                #                      Germany                          #
                #                                                       #
                #                  All rights reserved                  #
                #                        -***-                          #
                #########################################################


                         Program Version 6.0.0  -   RELEASE  -


 With contributions from (in alphabetic order):
   Daniel Aravena         : Magnetic Suceptibility
   Michael Atanasov       : Ab Initio Ligand Field Theory (pilot matlab implementation)
   Alexander A. Auer      : GIAO ZORA, VPT2 properties, NMR spectrum
   Ute Becker             : All parallelization in ORCA, NUMFREQ, NUMCALC
   Giovanni Bistoni       : ED, misc. LED, open-shell LED, HFLD
   Martin Brehm           : Molecular dynamics
   Dmytro Bykov           : pre 5.0 version of the SCF Hessian
   Marcos Casanova-Páez   : Triplet and SCS-CIS(D). UHF-(DLPNO)-IP/EA/STEOM-CCSD. UHF-CVS-IP/STEOM-CCSD
   Vijay G. Chilkuri      : MRCI spin determinant printing, contributions to CSF-ICE
   Pauline Colinet        : FMM embedding
   Dipayan Datta          : RHF DLPNO-CCSD density
   Achintya Kumar Dutta   : EOM-CC, STEOM-CC
   Nicolas Foglia         : Exact transition moments, OPA infrastructure, MCD improvements
   Dmitry Ganyushin       : Spin-Orbit,Spin-Spin,Magnetic field MRCI
   Miquel Garcia          : C-PCM and meta-GGA Hessian, CCSD/C-PCM, Gaussian charge scheme
   Tiago L. C. Gouveia    : GS-ROHF, GS-ROCIS
   Yang Guo               : DLPNO-NEVPT2, F12-NEVPT2, CIM, IAO-localization
   Andreas Hansen         : Spin unrestricted coupled pair/coupled cluster methods
   Ingolf Harden          : AUTO-CI MPn and infrastructure 
   Benjamin Helmich-Paris : MC-RPA, TRAH-(SCF,CASSCF), AVAS, COSX integrals, SCF dyn. polar.
   Lee Huntington         : MR-EOM, pCC
   Robert Izsak           : Overlap fitted RIJCOSX, COSX-SCS-MP3, EOM
   Riya Kayal             : Wick's Theorem for AUTO-CI, AUTO-CI UHF-CCSDT
   Emily Kempfer          : AUTO-CI, RHF CISDT and CCSDT
   Christian Kollmar      : KDIIS, OOCD, Brueckner-CCSD(T), CCSD density, CASPT2, CASPT2-K, improved NEVPT2
   Axel Koslowski         : Symmetry handling
   Simone Kossmann        : Meta GGA functionals, TD-DFT gradient, OOMP2, (MP2 Hessian; deprecated post 5.0)
   Lucas Lang             : DCDCAS
   Marvin Lechner         : AUTO-CI (C++ implementation), FIC-MRCC
   Spencer Leger          : CASSCF response
   Dagmar Lenk            : GEPOL surface, SMD, ORCA-2-JSON
   Dimitrios Liakos       : Extrapolation schemes; Compound Job, initial MDCI parallelization
   Dimitrios Manganas     : Further ROCIS development; embedding schemes. LFT, Crystal Embedding
   Dimitrios Pantazis     : SARC Basis sets
   Anastasios Papadopoulos: AUTO-CI, single reference methods and gradients
   Taras Petrenko         : pre 6.0 DFT Hessian and TD-DFT gradient, (ASA, deprecated), ECA, 1-Electron XAS/XES, NRVS
   Peter Pinski           : DLPNO-MP2, DLPNO-MP2 Gradient
   Christoph Reimann      : Effective Core Potentials
   Marius Retegan         : Local ZFS, SOC
   Christoph Riplinger    : Optimizer, TS searches, QM/MM, DLPNO-CCSD(T), (RO)-DLPNO pert. Triples
   Michael Roemelt        : Original ROCIS implementation
   Masaaki Saitow         : Open-shell DLPNO-CCSD energy and density
   Barbara Sandhoefer     : DKH picture change effects
   Kantharuban Sivalingam : CASSCF convergence/infrastructure, NEVPT2 and variants, FIC-MRCI
   Bernardo de Souza      : ESD, SOC TD-DFT
   Georgi Stoychev        : AutoAux, RI-MP2 NMR, DLPNO-MP2 response, X2C
   Van Anh Tran           : RI-MP2 g-tensors
   Willem Van den Heuvel  : Paramagnetic NMR
   Zikuan Wang            : NOTCH, Electric field optimization 
   Frank Wennmohs         : Technical directorship and infrastructure
   Hang Xu                : AUTO-CI-Response properties 


 We gratefully acknowledge several colleagues who have allowed us to
 interface, adapt or use parts of their codes:
   Stefan Grimme, W. Hujo, H. Kruse, P. Pracht,  : VdW corrections, initial TS optimization,
                  C. Bannwarth, S. Ehlert,         DFT functionals, gCP, sTDA/sTD-DF
                  L. Wittmann, M. Mueller
   Ed Valeev, F. Pavosevic, A. Kumar             : LibInt (2-el integral package), F12 methods
   Garnet Chan, S. Sharma, J. Yang, R. Olivares  : DMRG
   Ulf Ekstrom                                   : XCFun DFT Library
   Mihaly Kallay                                 : mrcc  (arbitrary order and MRCC methods)
   Frank Weinhold                                : gennbo (NPA and NBO analysis)
   Simon Mueller                                 : openCOSMO-RS
   Christopher J. Cramer and Donald G. Truhlar   : smd solvation model
   Lars Goerigk                                  : TD-DFT with DH, B97 family of functionals
   V. Asgeirsson, H. Jonsson                     : NEB implementation
   FAccTs GmbH                                   : IRC, NEB, NEB-TS, DLPNO-Multilevel, CI-OPT
                                                   MM, QMMM, 2- and 3-layer-ONIOM, Crystal-QMMM,
                                                   LR-CPCM, SF, NACMEs, symmetry and pop. for TD-DFT,
                                                   nearIR, NL-DFT gradient (VV10), updates on ESD,
                                                   ML-optimized integration grids, MBIS, APM,
                                                   GOAT, DOCKER, SOLVATOR, interface openCOSMO-RS
   S Lehtola, MJT Oliveira, MAL Marques          : LibXC Library
   Liviu Ungur et al                             : ANISO software


 Your calculation uses the libint2 library for the computation of 2-el integrals
 For citations please refer to: http://libint.valeyev.net

 Your ORCA version has been built with support for libXC version: 6.2.2
 For citations please refer to: https://libxc.gitlab.io

 This ORCA versions uses:
   CBLAS   interface :  Fast vector & matrix operations
   LAPACKE interface :  Fast linear algebra routines
   SCALAPACK package :  Parallel linear algebra routines
   Shared memory     :  Shared parallel matrices
   BLAS/LAPACK       :  OpenBLAS 0.3.27  USE64BITINT DYNAMIC_ARCH NO_AFFINITY Sandybridge SINGLE_THREADED
        Core in use  :  Sandybridge
   Copyright (c) 2011-2014, The OpenBLAS Project


NOTE: MaxCore=3500 MB was set to SCF,MP2,MDCI,CIPSI,MRCI and CIS
      => If you want to overwrite this, your respective input block should be placed after the MaxCore statement
Your calculation utilizes the atom-pairwise dispersion correction
with the Becke-Johnson damping scheme (D3BJ)


Warning: RI is on but no J-basis has been assigned. Assigning Def2/J (nothing to worry about!)
================================================================================

----- Orbital basis set information -----
Your calculation utilizes the basis: def2-SV(P)
   F. Weigend and R. Ahlrichs, Phys. Chem. Chem. Phys. 7, 3297 (2005).

----- AuxJ basis set information -----
Your calculation utilizes the auxiliary basis: def2/J
   F. Weigend, Phys. Chem. Chem. Phys. 8, 1057 (2006).

================================================================================
                                        WARNINGS
                       Please study these warnings very carefully!
================================================================================


================================================================================
                                       INPUT FILE
================================================================================
NAME = CS_PdOAc_010_freq_01.inp
|  1> !PBE0 def2-SV(p) freq d3 TightSCF SlowConv RIJCOSX defgrid2
|  2> 
|  3> %pal
|  4> nprocs 4
|  5> nprocs_group 2
|  6> end
|  7> 
|  8> %scf
|  9> MaxIter 1500
| 10> end
| 11> 
| 12> %maxcore 3500
| 13> 
| 14>  
| 15> 
| 16> * xyz 0 1
| 17>   O           0.00022945393406     -0.31300099561065     -0.53165302648926
| 18>   C          -1.12714279750530     -0.76227707252610      0.07958516999907
| 19>   O          -2.21060860168616     -0.28259429224135     -0.09602707607288
| 20>   C          -0.80193349509532     -1.91629277848566      0.97930931412647
| 21>   H          -0.33747088164425     -2.72879620345494      0.39569919685846
| 22>   H          -0.06870158135400     -1.60274631806362      1.74133143466650
| 23>   H          -1.71969982718559     -2.27584634386799      1.46388745359979
| 24>   C          -0.10046244432862      0.74418283549747     -1.39379501186392
| 25>   H          -1.11577961958336      1.13371131171588     -1.51202627486007
| 26>   C           0.97642010734584      1.22159272343404     -2.01191491942361
| 27>   H           1.96792442155445      0.78629382831538     -1.85036187396633
| 28>   H           0.87446090954824      2.06699611628755     -2.69719060557422
| 29> *
| 30> 
| 31>                          ****END OF INPUT****
================================================================================

                       ****************************
                       * Single Point Calculation *
                       ****************************

---------------------------------
CARTESIAN COORDINATES (ANGSTROEM)
---------------------------------
  O      0.000229   -0.313001   -0.531653
  C     -1.127143   -0.762277    0.079585
  O     -2.210609   -0.282594   -0.096027
  C     -0.801933   -1.916293    0.979309
  H     -0.337471   -2.728796    0.395699
  H     -0.068702   -1.602746    1.741331
  H     -1.719700   -2.275846    1.463887
  C     -0.100462    0.744183   -1.393795
  H     -1.115780    1.133711   -1.512026
  C      0.976420    1.221593   -2.011915
  H      1.967924    0.786294   -1.850362
  H      0.874461    2.066996   -2.697191

----------------------------
CARTESIAN COORDINATES (A.U.)
----------------------------
  NO LB      ZA    FRAG     MASS         X           Y           Z
   0 O     8.0000    0    15.999    0.000434   -0.591486   -1.004679
   1 C     6.0000    0    12.011   -2.129991   -1.440495    0.150394
   2 O     8.0000    0    15.999   -4.177445   -0.534026   -0.181465
   3 C     6.0000    0    12.011   -1.515435   -3.621269    1.850626
   4 H     1.0000    0     1.008   -0.637728   -5.156677    0.747763
   5 H     1.0000    0     1.008   -0.129827   -3.028752    3.290640
   6 H     1.0000    0     1.008   -3.249762   -4.300726    2.766346
   7 C     6.0000    0    12.011   -0.189847    1.406302   -2.633891
   8 H     1.0000    0     1.008   -2.108518    2.142404   -2.857316
   9 C     6.0000    0    12.011    1.845167    2.308476   -3.801968
  10 H     1.0000    0     1.008    3.718838    1.485880   -3.496677
  11 H     1.0000    0     1.008    1.652492    3.906057   -5.096952

--------------------------------
INTERNAL COORDINATES (ANGSTROEM)
--------------------------------
 O      0   0   0     0.000000000000     0.00000000     0.00000000
 C      1   0   0     1.358833808621     0.00000000     0.00000000
 O      2   1   0     1.197845307000   123.51036859     0.00000000
 C      2   1   3     1.499005295355   110.15348632   180.04453165
 H      4   2   1     1.102945195310   109.93113177   301.51173830
 H      4   2   1     1.103004140683   109.87934010    59.21100315
 H      4   2   1     1.098357765008   109.60549327   180.32796805
 C      1   2   3     1.367868895062   118.55354611     0.06850961
 H      8   1   2     1.093883006405   114.30946775   359.77120462
 C      8   1   2     1.330288860106   120.70618443   179.77007026
 H     10   8   1     1.094835750093   121.45694713     0.00000000
 H     10   8   1     1.093025773115   119.56271693   179.99028696

---------------------------
INTERNAL COORDINATES (A.U.)
---------------------------
 O      0   0   0     0.000000000000     0.00000000     0.00000000
 C      1   0   0     2.567823759806     0.00000000     0.00000000
 O      2   1   0     2.263599581032   123.51036859     0.00000000
 C      2   1   3     2.832709481518   110.15348632   180.04453165
 H      4   2   1     2.084264359861   109.93113177   301.51173830
 H      4   2   1     2.084375750472   109.87934010    59.21100315
 H      4   2   1     2.075595372931   109.60549327   180.32796805
 C      1   2   3     2.584897598777   118.55354611     0.06850961
 H      8   1   2     2.067139304656   114.30946775   359.77120462
 C      8   1   2     2.513881624607   120.70618443   179.77007026
 H     10   8   1     2.068939729303   121.45694713     0.00000000
 H     10   8   1     2.065519368504   119.56271693   179.99028696

---------------------
BASIS SET INFORMATION
---------------------
There are 3 groups of distinct atoms

 Group   1 Type O   : 7s4p1d contracted to 3s2p1d pattern {511/31/1}
 Group   2 Type C   : 7s4p1d contracted to 3s2p1d pattern {511/31/1}
 Group   3 Type H   : 4s contracted to 2s pattern {31}

Atom   0O    basis set group =>   1
Atom   1C    basis set group =>   2
Atom   2O    basis set group =>   1
Atom   3C    basis set group =>   2
Atom   4H    basis set group =>   3
Atom   5H    basis set group =>   3
Atom   6H    basis set group =>   3
Atom   7C    basis set group =>   2
Atom   8H    basis set group =>   3
Atom   9C    basis set group =>   2
Atom  10H    basis set group =>   3
Atom  11H    basis set group =>   3
---------------------------------
AUXILIARY/J BASIS SET INFORMATION
---------------------------------
There are 3 groups of distinct atoms

 Group   1 Type O   : 12s5p4d2f1g contracted to 6s4p3d1f1g pattern {711111/2111/211/2/1}
 Group   2 Type C   : 12s5p4d2f1g contracted to 6s4p3d1f1g pattern {711111/2111/211/2/1}
 Group   3 Type H   : 5s2p1d contracted to 3s1p1d pattern {311/2/1}

Atom   0O    basis set group =>   1
Atom   1C    basis set group =>   2
Atom   2O    basis set group =>   1
Atom   3C    basis set group =>   2
Atom   4H    basis set group =>   3
Atom   5H    basis set group =>   3
Atom   6H    basis set group =>   3
Atom   7C    basis set group =>   2
Atom   8H    basis set group =>   3
Atom   9C    basis set group =>   2
Atom  10H    basis set group =>   3
Atom  11H    basis set group =>   3


           ************************************************************
           *        Program running with 4 parallel MPI-processes     *
           *              working on a common directory               *
           ************************************************************
------------------------------------------------------------------------------
                             ORCA STARTUP CALCULATIONS
                           -- RI-GTO INTEGRALS CHOSEN --
------------------------------------------------------------------------------
------------------------------------------------------------------------------
                   ___                                                        
                  /   \      - P O W E R E D   B Y -                         
                 /     \                                                     
                 |  |  |   _    _      __       _____    __    __             
                 |  |  |  | |  | |    /  \     |  _  \  |  |  /  |          
                  \  \/   | |  | |   /    \    | | | |  |  | /  /          
                 / \  \   | |__| |  /  /\  \   | |_| |  |  |/  /          
                |  |  |   |  __  | /  /__\  \  |    /   |      \           
                |  |  |   | |  | | |   __   |  |    \   |  |\   \          
                \     /   | |  | | |  |  |  |  | |\  \  |  | \   \       
                 \___/    |_|  |_| |__|  |__|  |_| \__\ |__|  \__/        
                                                                              
                      - O R C A' S   B I G   F R I E N D -                    
                                      &                                       
                       - I N T E G R A L  F E E D E R -                       
                                                                              
 v1 FN, 2020, v2 2021, v3 2022-2024                                           
------------------------------------------------------------------------------


----------------------
SHARK INTEGRAL PACKAGE
----------------------

Number of atoms                             ...     12
Number of basis functions                   ...     96
Number of shells                            ...     48
Maximum angular momentum                    ...      2
Integral batch strategy                     ... SHARK/LIBINT Hybrid
RI-J (if used) integral strategy            ... SPLIT-RIJ (Revised 2003 algorithm where possible)
Printlevel                                  ...      1
Contraction scheme used                     ... SEGMENTED contraction
Prescreening option                         ... SCHWARTZ
   Thresh                                   ... 2.500e-11
   Tcut                                     ... 2.500e-12
   Tpresel                                  ... 2.500e-12 
Coulomb Range Separation                    ... NOT USED
Exchange Range Separation                   ... NOT USED
Multipole approximations                    ... NOT USED
Finite Nucleus Model                        ... NOT USED
CABS basis                                  ... NOT available
Auxiliary Coulomb fitting basis             ... AVAILABLE
   # of basis functions in Aux-J            ...    360
   # of shells in Aux-J                     ...    120
   Maximum angular momentum in Aux-J        ...      4
Auxiliary J/K fitting basis                 ... NOT available
Auxiliary Correlation fitting basis         ... NOT available
Auxiliary 'external' fitting basis          ... NOT available

Checking pre-screening integrals            ... done (  0.0 sec) Dimension = 48
Check shell pair data                       ... done (  0.8 sec)
Shell pair information
Shell pair cut-off parameter TPreSel        ...   2.5e-12
Total number of shell pairs                 ...      1176
Shell pairs after pre-screening             ...      1134
Total number of primitive shell pairs       ...      4752
Primitive shell pairs kept                  ...      3405
          la=0 lb=0:    439 shell pairs
          la=1 lb=0:    354 shell pairs
          la=1 lb=1:     78 shell pairs
          la=2 lb=0:    170 shell pairs
          la=2 lb=1:     72 shell pairs
          la=2 lb=2:     21 shell pairs

Calculating one electron integrals          ... done (  0.0 sec)
Calculating RI/J V-Matrix + Cholesky decomp.... done (  0.0 sec)
Calculating Nuclear repulsion               ... done (  0.0 sec) ENN=    226.614215095698 Eh

Diagonalization of the overlap matrix:
Smallest eigenvalue                        ... 2.295e-03
Time for diagonalization                   ...    0.002 sec
Threshold for overlap eigenvalues          ... 1.000e-07
Number of eigenvalues below threshold      ... 0
Time for construction of square roots      ...    0.010 sec
Total time needed                          ...    0.035 sec

-------------------
DFT GRID GENERATION
-------------------

General Integration Accuracy     IntAcc      ... 4.388
Radial Grid Type                 RadialGrid  ... OptM3 with GC (2021)
Angular Grid (max. ang.)         AngularGrid ... 4 (Lebedev-302)
Angular grid pruning method      GridPruning ... 4 (adaptive)
Weight generation scheme         WeightScheme... mBecke (2022)
Basis function cutoff            BFCut       ... 1.0000e-11
Integration weight cutoff        WCut        ... 1.0000e-14
Partially contracted basis set               ... off
Rotationally invariant grid construction     ... off
Angular grids for H and He will be reduced by one unit

Total number of grid points                  ...    55979
Total number of batches                      ...      880
Average number of points per batch           ...       63
Average number of grid points per atom       ...     4665

--------------------
COSX GRID GENERATION
--------------------

GRIDX 1
-------
General Integration Accuracy     IntAcc      ... 3.816
Radial Grid Type                 RadialGrid  ... OptM3 with GC (2021)
Angular Grid (max. ang.)         AngularGrid ... 1 (Lebedev-50)
Angular grid pruning method      GridPruning ... 4 (adaptive)
Weight generation scheme         WeightScheme... mBecke (2022)
Basis function cutoff            BFCut       ... 1.0000e-11
Integration weight cutoff        WCut        ... 1.0000e-14
Partially contracted basis set               ... on
Rotationally invariant grid construction     ... off
Angular grids for H and He will be reduced by one unit

Total number of grid points                  ...     7168
Total number of batches                      ...       64
Average number of points per batch           ...      112
Average number of grid points per atom       ...      597
UseSFitting                                  ... on

GRIDX 2
-------
General Integration Accuracy     IntAcc      ... 4.020
Radial Grid Type                 RadialGrid  ... OptM3 with GC (2021)
Angular Grid (max. ang.)         AngularGrid ... 2 (Lebedev-110)
Angular grid pruning method      GridPruning ... 4 (adaptive)
Weight generation scheme         WeightScheme... mBecke (2022)
Basis function cutoff            BFCut       ... 1.0000e-11
Integration weight cutoff        WCut        ... 1.0000e-14
Partially contracted basis set               ... on
Rotationally invariant grid construction     ... off
Angular grids for H and He will be reduced by one unit

Total number of grid points                  ...    15718
Total number of batches                      ...      129
Average number of points per batch           ...      121
Average number of grid points per atom       ...     1310
UseSFitting                                  ... on

GRIDX 3
-------
General Integration Accuracy     IntAcc      ... 4.338
Radial Grid Type                 RadialGrid  ... OptM3 with GC (2021)
Angular Grid (max. ang.)         AngularGrid ... 3 (Lebedev-194)
Angular grid pruning method      GridPruning ... 4 (adaptive)
Weight generation scheme         WeightScheme... mBecke (2022)
Basis function cutoff            BFCut       ... 1.0000e-11
Integration weight cutoff        WCut        ... 1.0000e-14
Partially contracted basis set               ... on
Rotationally invariant grid construction     ... off
Angular grids for H and He will be reduced by one unit

Total number of grid points                  ...    34625
Total number of batches                      ...      275
Average number of points per batch           ...      125
Average number of grid points per atom       ...     2885
UseSFitting                                  ... on
Initializing property integral containers    ... done (  0.0 sec)

SHARK setup successfully completed in   2.1 seconds

Maximum memory used throughout the entire STARTUP-calculation: 16.3 MB


           ************************************************************
           *        Program running with 4 parallel MPI-processes     *
           *              working on a common directory               *
           ************************************************************
-------------------------------------------------------------------------------
                                 ORCA GUESS
                   Start orbitals & Density for SCF / CASSCF
-------------------------------------------------------------------------------

------------
SCF SETTINGS
------------
Hamiltonian:
 Density Functional     Method          .... DFT(GTOs)
 Exchange Functional    Exchange        .... PBE
   PBE kappa parameter   XKappa         ....  0.804000
   PBE mue parameter    XMuePBE         ....  0.219520
 Correlation Functional Correlation     .... PBE
   PBE beta parameter  CBetaPBE         ....  0.066725
 LDA part of GGA corr.  LDAOpt          .... PW91-LDA
 Gradients option       PostSCFGGA      .... off
 Hybrid DFT is turned on
   Fraction HF Exchange ScalHFX         ....  0.250000
   Scaling of DF-GGA-X  ScalDFX         ....  0.750000
   Scaling of DF-GGA-C  ScalDFC         ....  1.000000
   Scaling of DF-LDA-C  ScalLDAC        ....  1.000000
   Perturbative correction              ....  0.000000
   NL short-range parameter             ....  6.900000
 RI-approximation to the Coulomb term is turned on
   Number of AuxJ basis functions       .... 360
   RIJ-COSX (HFX calculated with COS-X)).... on


General Settings:
 Integral files         IntName         .... CS_PdOAc_010_freq_01
 Hartree-Fock type      HFTyp           .... RHF
 Total Charge           Charge          ....    0
 Multiplicity           Mult            ....    1
 Number of Electrons    NEL             ....   46
 Basis Dimension        Dim             ....   96
 Nuclear Repulsion      ENuc            ....    226.6142150957 Eh

Convergence Acceleration:
 AO-DIIS                CNVDIIS         .... on
   Start iteration      DIISMaxIt       ....     0
   Startup error        DIISStart       ....  0.200000
   # of expansion vecs  DIISMaxEq       ....     5
   Bias factor          DIISBfac        ....   1.050
   Max. coefficient     DIISMaxC        ....  10.000
 MO-DIIS                CNVKDIIS        .... off
 Trust-Rad. Augm. Hess. CNVTRAH         .... auto
   Auto Start mean grad. ratio tolernc. ....  1.125000
   Auto Start start iteration           ....    50
   Auto Start num. interpolation iter.  ....    10
   Max. Number of Micro iterations      ....    24
   Max. Number of Macro iterations      .... Maxiter - #DIIS iter
   Number of Davidson start vectors     ....     2
   Converg. threshold    (grad. norm)   ....   1.000e-05
   Grad. Scal. Fac. for Micro threshold ....   0.100
   Minimum threshold for Micro iter.    ....   1.000e-02
   NR start threshold (gradient norm)   ....   1.000e-04
   Initial trust radius                 ....   0.400
   Minimum AH scaling param. (alpha)    ....   1.000
   Maximum AH scaling param. (alpha)    .... 1000.000
   Quad. conv. algorithm                .... NR
   White noise on init. David. guess    .... on
   Maximum white noise                  ....   0.010
   Pseudo random numbers                .... off
   Inactive MOs                         .... canonical
   Orbital update algorithm             .... Taylor
   Preconditioner                       .... Diag
   Full preconditioner red. dimension   ....   250
 SOSCF                  CNVSOSCF        .... on
   Start iteration      SOSCFMaxIt      ....   150
   Startup grad/error   SOSCFStart      ....  0.001000
   Hessian update       SOSCFHessUp     .... L-BFGS
 Level Shifting         CNVShift        .... on
   Level shift para.    LevelShift      ....    0.2500
   Turn off err/grad.   ShiftErr        ....    0.0000
 Zerner damping         CNVZerner       .... off
 Static damping         CNVDamp         .... on
   Fraction old density DampFac         ....    0.8500
   Max. Damping (<1)    DampMax         ....    0.9800
   Min. Damping (>=0)   DampMin         ....    0.0000
   Turn off err/grad.   DampErr         ....    0.0300

SCF Procedure:
 Maximum # iterations   MaxIter         ....  1500
 SCF integral mode      SCFMode         .... Direct
   Integral package                     .... SHARK and LIBINT hybrid scheme
 Reset frequency        DirectResetFreq ....    20
 Integral Threshold     Thresh          ....  2.500e-11 Eh
 Primitive CutOff       TCut            ....  2.500e-12 Eh

Convergence Tolerance:
 Convergence Check Mode ConvCheckMode   .... Total+1el-Energy
 Convergence forced     ConvForced      .... 0
 Energy Change          TolE            ....  1.000e-08 Eh
 1-El. energy change                    ....  1.000e-05 Eh
 Orbital Gradient       TolG            ....  1.000e-05
 Orbital Rotation angle TolX            ....  1.000e-05
 DIIS Error             TolErr          ....  5.000e-07

------------------------------
INITIAL GUESS: MODEL POTENTIAL
------------------------------
Loading Hartree-Fock densities                     ... done
Calculating cut-offs                               ... done
Initializing the effective Hamiltonian             ... done
Setting up the integral package (SHARK)            ... done
Starting the Coulomb interaction                   ... done (   0.1 sec)
Making the grid                                    ... done (   0.2 sec)
Mapping shells                                     ... done
Starting the XC term evaluation                    ... done (   0.0 sec)
  promolecular density results
     # of electrons  =     45.997295578
     EX              =    -38.499847088
     EC              =     -1.512438439
     EX+EC           =    -40.012285527
Transforming the Hamiltonian                       ... done (   0.0 sec)
Diagonalizing the Hamiltonian                      ... done (   0.0 sec)
Back transforming the eigenvectors                 ... done (   0.0 sec)
Now organizing SCF variables                       ... done
                      ------------------
                      INITIAL GUESS DONE (   0.5 sec)
                      ------------------
             **** ENERGY FILE WAS UPDATED (CS_PdOAc_010_freq_01.en.tmp) ****
Finished Guess after   1.0 sec
Maximum memory used throughout the entire GUESS-calculation: 8.9 MB


           ************************************************************
           *        Program running with 4 parallel MPI-processes     *
           *              working on a common directory               *
           ************************************************************

-------------------------------------------------------------------------------------------
                                      ORCA LEAN-SCF
                              memory conserving SCF solver
-------------------------------------------------------------------------------------------

----------------------------------------D-I-I-S--------------------------------------------
Iteration    Energy (Eh)           Delta-E    RMSDP     MaxDP     DIISErr   Damp  Time(sec)
-------------------------------------------------------------------------------------------
               ***  Starting incremental Fock matrix formation  ***
    1    -305.7019649686951652     0.00e+00  2.56e-03  4.20e-02  2.42e-01  0.850   3.7
    2    -305.7525083110385822    -5.05e-02  2.40e-03  3.74e-02  1.68e-01  0.850   2.1
                               ***Turning on AO-DIIS***
    3    -305.7838517313286957    -3.13e-02  1.20e-03  1.92e-02  1.05e-01  0.850   1.1
    4    -305.8036102342497315    -1.98e-02  7.76e-04  1.29e-02  8.39e-02  0.850   1.7
    5    -305.8177650324907972    -1.42e-02  5.69e-04  9.17e-03  7.17e-02  0.850   2.2
    6    -305.8288754414016921    -1.11e-02  4.61e-04  6.89e-03  6.14e-02  0.850   2.0
    7    -305.8379795850482878    -9.10e-03  3.96e-04  6.21e-03  5.13e-02  0.850   2.1
    8    -305.8455105501744811    -7.53e-03  3.34e-04  5.10e-03  4.17e-02  0.850   4.0
    9    -305.8516951644319306    -6.18e-03  2.81e-04  4.56e-03  3.47e-02  0.850   3.0
   10    -305.8567966107254961    -5.10e-03  2.35e-04  3.82e-03  2.94e-02  0.850   6.1
   11    -305.8610337174056895    -4.24e-03  1.31e-03  2.06e-02  2.49e-02  0.000   3.0
   12    -305.8835427155909201    -2.25e-02  8.41e-05  1.37e-03  2.26e-03  0.000   3.9
                              *** Initializing SOSCF ***
---------------------------------------S-O-S-C-F--------------------------------------
Iteration    Energy (Eh)           Delta-E    RMSDP     MaxDP     MaxGrad    Time(sec)
--------------------------------------------------------------------------------------
   13    -305.8835581203755964    -1.54e-05  2.46e-05  4.07e-04  3.70e-04     2.1
               *** Restarting incremental Fock matrix formation ***
   14    -305.8835389358775956     1.92e-05  2.94e-05  3.48e-04  7.57e-05     1.9
   15    -305.8835387553283454     1.81e-07  1.24e-05  2.33e-04  1.68e-04     1.4
   16    -305.8835390904835094    -3.35e-07  3.09e-06  5.84e-05  1.31e-05     2.4
   17    -305.8835390861146379     4.37e-09  1.74e-06  3.46e-05  2.50e-05     2.2
                 **** Energy Check signals convergence ****

               *****************************************************
               *                     SUCCESS                       *
               *           SCF CONVERGED AFTER  17 CYCLES          *
               *****************************************************

Recomputing exchange energy using gridx3       ... done (    1.677 sec)
Old exchange energy                            :     -9.802556694 Eh
New exchange energy                            :     -9.802536000 Eh
Exchange energy change after final integration :      0.000020693 Eh
Total energy after final integration           :   -305.883518393 Eh
             **** ENERGY FILE WAS UPDATED (CS_PdOAc_010_freq_01.en.tmp) ****

----------------
TOTAL SCF ENERGY
----------------

Total Energy       :       -305.88351839262481 Eh           -8323.51369 eV

Components:
Nuclear Repulsion  :        226.61421509569800 Eh            6166.48629 eV
Electronic Energy  :       -532.49775418181275 Eh          -14490.00055 eV
One Electron Energy:       -864.51213500440883 Eh          -23524.57116 eV
Two Electron Energy:        332.01438082259614 Eh            9034.57061 eV

Virial components:
Potential Energy   :       -609.31672323957218 Eh          -16580.35097 eV
Kinetic Energy     :        303.43320484694732 Eh            8256.83727 eV
Virial Ratio       :          2.00807529797839

DFT components:
N(Alpha)           :       23.000001090178 electrons
N(Beta)            :       23.000001090178 electrons
N(Total)           :       46.000002180356 electrons
E(X)               :      -29.357767473899 Eh       
E(C)               :       -1.530361740418 Eh       
E(XC)              :      -30.888129214316 Eh       

---------------
SCF CONVERGENCE
---------------

  Last Energy change         ...   -4.3689e-09  Tolerance :   1.0000e-08
  Last MAX-Density change    ...    3.4575e-05  Tolerance :   1.0000e-07
  Last RMS-Density change    ...    1.7425e-06  Tolerance :   5.0000e-09
  Last DIIS Error            ...    3.7004e-04  Tolerance :   5.0000e-07
  Last Orbital Gradient      ...    2.4989e-05  Tolerance :   1.0000e-05
  Last Orbital Rotation      ...    3.0599e-05  Tolerance :   1.0000e-05


----------------
ORBITAL ENERGIES
----------------

  NO   OCC          E(Eh)            E(eV) 
   0   2.0000     -19.274069      -524.4741 
   1   2.0000     -19.209206      -522.7091 
   2   2.0000     -10.372590      -282.2525 
   3   2.0000     -10.294656      -280.1318 
   4   2.0000     -10.245543      -278.7954 
   5   2.0000     -10.230203      -278.3780 
   6   2.0000      -1.147174       -31.2162 
   7   2.0000      -1.054769       -28.7017 
   8   2.0000      -0.814396       -22.1608 
   9   2.0000      -0.760266       -20.6879 
  10   2.0000      -0.653618       -17.7858 
  11   2.0000      -0.579856       -15.7787 
  12   2.0000      -0.520021       -14.1505 
  13   2.0000      -0.505851       -13.7649 
  14   2.0000      -0.498207       -13.5569 
  15   2.0000      -0.453345       -12.3361 
  16   2.0000      -0.432803       -11.7772 
  17   2.0000      -0.427657       -11.6371 
  18   2.0000      -0.423943       -11.5361 
  19   2.0000      -0.376073       -10.2335 
  20   2.0000      -0.372808       -10.1446 
  21   2.0000      -0.302974        -8.2443 
  22   2.0000      -0.266664        -7.2563 
  23   0.0000      -0.009574        -0.2605 
  24   0.0000       0.040198         1.0938 
  25   0.0000       0.078442         2.1345 
  26   0.0000       0.104417         2.8413 
  27   0.0000       0.117525         3.1980 
  28   0.0000       0.128549         3.4980 
  29   0.0000       0.144069         3.9203 
  30   0.0000       0.159459         4.3391 
  31   0.0000       0.193798         5.2735 
  32   0.0000       0.242402         6.5961 
  33   0.0000       0.278950         7.5906 
*Only the first 10 virtual orbitals were printed.

                    ********************************
                    * MULLIKEN POPULATION ANALYSIS *
                    ********************************

-----------------------
MULLIKEN ATOMIC CHARGES
-----------------------
   0 O :   -0.285010
   1 C :    0.198251
   2 O :   -0.235469
   3 C :   -0.336133
   4 H :    0.162846
   5 H :    0.162870
   6 H :    0.156351
   7 C :    0.029704
   8 H :    0.143444
   9 C :   -0.279706
  10 H :    0.140923
  11 H :    0.141928
Sum of atomic charges:    0.0000000

--------------------------------
MULLIKEN REDUCED ORBITAL CHARGES
--------------------------------
  0 O s       :     3.734586  s :     3.734586
      pz      :     1.507164  p :     4.533171
      px      :     1.542851
      py      :     1.483156
      dz2     :     0.002644  d :     0.017252
      dxz     :     0.003720
      dyz     :     0.003067
      dx2y2   :     0.004432
      dxy     :     0.003390

  1 C s       :     3.054114  s :     3.054114
      pz      :     0.862790  p :     2.610290
      px      :     0.829681
      py      :     0.917819
      dz2     :     0.014082  d :     0.137345
      dxz     :     0.039064
      dyz     :     0.011083
      dx2y2   :     0.036882
      dxy     :     0.036234

  2 O s       :     3.758749  s :     3.758749
      pz      :     1.533283  p :     4.457242
      px      :     1.390005
      py      :     1.533954
      dz2     :     0.002245  d :     0.019478
      dxz     :     0.004847
      dyz     :     0.000883
      dx2y2   :     0.005609
      dxy     :     0.005895

  3 C s       :     3.106618  s :     3.106618
      pz      :     1.064368  p :     3.201193
      px      :     1.096411
      py      :     1.040414
      dz2     :     0.001737  d :     0.028322
      dxz     :     0.008150
      dyz     :     0.008264
      dx2y2   :     0.005003
      dxy     :     0.005169

  4 H s       :     0.837154  s :     0.837154

  5 H s       :     0.837130  s :     0.837130

  6 H s       :     0.843649  s :     0.843649

  7 C s       :     3.138257  s :     3.138257
      pz      :     0.901717  p :     2.765600
      px      :     1.011702
      py      :     0.852180
      dz2     :     0.013988  d :     0.066440
      dxz     :     0.008315
      dyz     :     0.014870
      dx2y2   :     0.016759
      dxy     :     0.012508

  8 H s       :     0.856556  s :     0.856556

  9 C s       :     3.181758  s :     3.181758
      pz      :     1.040574  p :     3.070207
      px      :     0.999033
      py      :     1.030600
      dz2     :     0.003974  d :     0.027741
      dxz     :     0.005102
      dyz     :     0.005205
      dx2y2   :     0.006619
      dxy     :     0.006840

 10 H s       :     0.859077  s :     0.859077

 11 H s       :     0.858072  s :     0.858072



                     *******************************
                     * LOEWDIN POPULATION ANALYSIS *
                     *******************************

----------------------
LOEWDIN ATOMIC CHARGES
----------------------
   0 O :   -0.072324
   1 C :    0.083192
   2 O :   -0.164427
   3 C :   -0.363878
   4 H :    0.152393
   5 H :    0.152543
   6 H :    0.145759
   7 C :   -0.050730
   8 H :    0.134088
   9 C :   -0.293332
  10 H :    0.136655
  11 H :    0.140061

-------------------------------
LOEWDIN REDUCED ORBITAL CHARGES
-------------------------------
  0 O s       :     3.436216  s :     3.436216
      pz      :     1.517248  p :     4.602052
      px      :     1.580638
      py      :     1.504166
      dz2     :     0.004805  d :     0.034055
      dxz     :     0.007366
      dyz     :     0.006932
      dx2y2   :     0.008436
      dxy     :     0.006516

  1 C s       :     2.847045  s :     2.847045
      pz      :     0.872978  p :     2.769872
      px      :     0.963052
      py      :     0.933842
      dz2     :     0.029840  d :     0.299891
      dxz     :     0.082837
      dyz     :     0.022507
      dx2y2   :     0.085462
      dxy     :     0.079246

  2 O s       :     3.542723  s :     3.542723
      pz      :     1.529906  p :     4.588888
      px      :     1.504826
      py      :     1.554157
      dz2     :     0.004509  d :     0.032816
      dxz     :     0.006588
      dyz     :     0.001302
      dx2y2   :     0.009961
      dxy     :     0.010455

  3 C s       :     2.960848  s :     2.960848
      pz      :     1.109375  p :     3.335792
      px      :     1.134501
      py      :     1.091916
      dz2     :     0.003882  d :     0.067238
      dxz     :     0.018654
      dyz     :     0.020758
      dx2y2   :     0.011889
      dxy     :     0.012056

  4 H s       :     0.847607  s :     0.847607

  5 H s       :     0.847457  s :     0.847457

  6 H s       :     0.854241  s :     0.854241

  7 C s       :     2.912494  s :     2.912494
      pz      :     0.943032  p :     2.988932
      px      :     1.136194
      py      :     0.909706
      dz2     :     0.029210  d :     0.149304
      dxz     :     0.020054
      dyz     :     0.033346
      dx2y2   :     0.037397
      dxy     :     0.029296

  8 H s       :     0.865912  s :     0.865912

  9 C s       :     2.965707  s :     2.965707
      pz      :     1.076702  p :     3.261176
      px      :     1.103772
      py      :     1.080702
      dz2     :     0.008304  d :     0.066449
      dxz     :     0.013002
      dyz     :     0.011049
      dx2y2   :     0.018041
      dxy     :     0.016054

 10 H s       :     0.863345  s :     0.863345

 11 H s       :     0.859939  s :     0.859939



                      *****************************
                      * MAYER POPULATION ANALYSIS *
                      *****************************

  NA   - Mulliken gross atomic population
  ZA   - Total nuclear charge
  QA   - Mulliken gross atomic charge
  VA   - Mayer's total valence
  BVA  - Mayer's bonded valence
  FA   - Mayer's free valence

  ATOM       NA         ZA         QA         VA         BVA        FA
  0 O      8.2850     8.0000    -0.2850     2.1724     2.1724     0.0000
  1 C      5.8017     6.0000     0.1983     4.3128     4.3128     0.0000
  2 O      8.2355     8.0000    -0.2355     2.2585     2.2585     0.0000
  3 C      6.3361     6.0000    -0.3361     3.8640     3.8640    -0.0000
  4 H      0.8372     1.0000     0.1628     0.9510     0.9510     0.0000
  5 H      0.8371     1.0000     0.1629     0.9509     0.9509    -0.0000
  6 H      0.8436     1.0000     0.1564     0.9630     0.9630    -0.0000
  7 C      5.9703     6.0000     0.0297     3.9902     3.9902     0.0000
  8 H      0.8566     1.0000     0.1434     0.9808     0.9808     0.0000
  9 C      6.2797     6.0000    -0.2797     3.8919     3.8919     0.0000
 10 H      0.8591     1.0000     0.1409     0.9525     0.9525     0.0000
 11 H      0.8581     1.0000     0.1419     0.9448     0.9448     0.0000

  Mayer bond orders larger than 0.100000
B(  0-O ,  1-C ) :   1.0726 B(  0-O ,  7-C ) :   0.9935 B(  1-C ,  2-O ) :   2.0754 
B(  1-C ,  3-C ) :   1.0728 B(  3-C ,  4-H ) :   0.9280 B(  3-C ,  5-H ) :   0.9279 
B(  3-C ,  6-H ) :   0.9422 B(  7-C ,  8-H ) :   0.9216 B(  7-C ,  9-C ) :   1.9909 
B(  9-C , 10-H ) :   0.9224 B(  9-C , 11-H ) :   0.9258 

-------
TIMINGS
-------

Total SCF time: 0 days 0 hours 0 min 47 sec 

Total time                  ....      47.538 sec
Sum of individual times     ....      46.851 sec  ( 98.6%)

SCF preparation             ....       0.589 sec  (  1.2%)
Fock matrix formation       ....      26.606 sec  ( 56.0%)
  Startup                   ....       1.816 sec  (  6.8% of F)
  Split-RI-J                ....       6.707 sec  ( 25.2% of F)
  Chain of spheres X        ....       9.515 sec  ( 35.8% of F)
  XC integration            ....       3.575 sec  ( 13.4% of F)
    XC Preparation          ....       0.000 sec  (  0.0% of XC)
    Basis function eval.    ....       0.872 sec  ( 24.4% of XC)
    Density eval.           ....       0.342 sec  (  9.6% of XC)
    XC-Functional eval.     ....       0.261 sec  (  7.3% of XC)
    XC-Potential eval.      ....       0.344 sec  (  9.6% of XC)
Diagonalization             ....       0.000 sec  (  0.0%)
Density matrix formation    ....       5.120 sec  ( 10.8%)
Total Energy calculation    ....       0.747 sec  (  1.6%)
Population analysis         ....       0.191 sec  (  0.4%)
Orbital Transformation      ....       0.155 sec  (  0.3%)
Orbital Orthonormalization  ....       0.000 sec  (  0.0%)
DIIS solution               ....      13.033 sec  ( 27.4%)
SOSCF solution              ....       0.410 sec  (  0.9%)
Finished LeanSCF after  47.7 sec

Maximum memory used throughout the entire LEANSCF-calculation: 10.7 MB


           ************************************************************
           *        Program running with 4 parallel MPI-processes     *
           *              working on a common directory               *
           ************************************************************

------------------------------------------------------------------------------
                         ORCA PROPERTY INTEGRAL CALCULATIONS
------------------------------------------------------------------------------

GBWName                                   ... CS_PdOAc_010_freq_01.gbw
Number of atoms                           ...     12
Number of basis functions                 ...     96
Max core memory                           ...   3500 MB

Dipole integrals                          ... YES
Quadrupole integrals                      ...  NO
Linear momentum integrals                 ...  NO
Angular momentum integrals                ...  NO
Higher moments length integrals           ...  NO
Higher moments velocity integrals         ...  NO
Kinetic energy integrals                  ...  NO
GIAO right hand sides                     ...  NO
GIAO dipole derivative integrals          ...  NO
SOC integrals                             ...  NO
EPR diamagnetic integrals (GIAO)          ...  NO
EPR gauge integrals                       ...  NO
Field gradient integrals                  ...  NO (   0 nuclei)
Spin-dipole/Fermi contact integrals       ...  NO (   0 nuclei)
Contact density integrals                 ...  NO (   0 nuclei)
Nucleus-orbit integrals                   ...  NO (   0 nuclei)
Geometric perturbations                   ... YES (  12 nuclei)

Choice of electric origin   ... Center of mass
Position of electric origin ... ( -1.0627, -0.4551, -0.8936) 
Choice of magnetic origin   ... GIAO
Position of magnetic origin ... (  0.0000,  0.0000,  0.0000) 

Calculating integrals                     ... Electric Dipole (Length)     done (  0.0 sec)
Calculating integrals                     ... Geometrical perturbation right hand sides

Info: (SHARK/DRIVER/GeoPert/RHS): Found parallel group flag:
                                  Will try to set up 2 WorkingGroups with 2 workers belonging to each group

Info (SHARK/DRIVER/GeoPert/RHS): Found 2 parallel subgroups - adjusting work intervals:
                                 group   1: will be working on atoms    6 to   11
                                 group   0: will be working on atoms    0 to    5
                                 Outputs of groups > 0 will be redirected to CS_PdOAc_010_freq_01.group*.propint.out


-----------------------
GEOMETRIC PERTURBATIONS (12 nuclei)
-----------------------

MaxCore                            ...   3500 MB
Number of batches                  ...      1

Warning: could not find the gridfile in CPSCF-Calc-FXC
         ... constructing integration grid from scratch...
         ... finished setting up the grid
BATCH   0: Atoms    0 -    5 ( 18 perturbations)
   => H(core) and overlap derivative integrals     ... done (     0.0 sec)
   => Making and storing internal U-coefficients   ... done (     0.1 sec)
   => RI-J derivative integrals                    ... done (     1.6 sec)
   => RI-J response operators                      ... done (     0.2 sec)
   => Chain of spheres derivative integrals        ... done (     2.6 sec)
   => Chain of spheres response operator           ... done (     1.8 sec)
   => XC derivative integrals                      ... done (     5.9 sec)
   => XC response operators                        ... done (     1.5 sec)
   => Completing and storing right hand sides      ... done (     0.0 sec)
   => Total time for right hand sides =  14.9 sec

  geometrical perturbations done ( 16.1 sec)

Property integrals calculated in  16.2 sec

Maximum memory used throughout the entire PROPINT-calculation: 18.8 MB


-------------------------------------------------------------------------------
                          DFT DISPERSION CORRECTION                            
                                                                               
                              DFTD3 V3.1  Rev 1                                
                          USING Becke-Johnson damping                          
-------------------------------------------------------------------------------
The PBE0 functional is recognized
Active option DFTDOPT                   ...         4   

molecular C6(AA) [au] = 1339.656859 


            DFT-D V3
 parameters
 s6 scaling factor         :     1.0000 
 a1 scaling factor         :     0.4145 
 s8 scaling factor         :     1.2177 
 a2 scaling factor         :     4.8593 
 ad hoc parameters k1-k3   :    16.0000     1.3333    -4.0000 

 Edisp/kcal,au: -4.233804805940  -0.006746996706 
 E6   /kcal   :  -2.717530580 
 E8   /kcal   :  -1.516274226 
 % E8         :  35.813512806 

-------------------------   ----------------
Dispersion correction           -0.006746997
-------------------------   ----------------


-------------------------   --------------------
FINAL SINGLE POINT ENERGY      -305.890265389331
-------------------------   --------------------



           ************************************************************
           *        Program running with 4 parallel MPI-processes     *
           *              working on a common directory               *
           ************************************************************
------------------------------------------------------------------------------
                            ORCA SCF RESPONSE CALCULATION
------------------------------------------------------------------------------

GBWName                                 ... CS_PdOAc_010_freq_01.gbw
Number of atoms                         ...     12
Number of basis functions               ...     96
Max core memory                         ...   3500 MB

Electric field perturbation             ...  NO
Quadrupolar field perturbation          ...  NO
Magnetic field perturbation (no GIAO)   ...  NO
Magnetic field perturbation (with GIAO) ...  NO
Linear momentum (velocity) perturbation ...  NO
Spin-orbit coupling perturbation        ...  NO
Choice of electric origin               ... Center of mass
Position of electric origin             ...    -1.062745    -0.455072    -0.893569
Choice of magnetic origin               ... GIAO
Position of magnetic origin             ...     0.000000     0.000000     0.000000
Nuclear geometric perturbations         ... YES (  36 perturbations)
Nucleus-orbit perturbations             ...  NO (   0 perturbations)
Spin-dipole/Fermi contact perturbations ...  NO (   0 perturbations)

Total number of real perturbations      ...     36
Total number of imaginary perturbations ...      0
Total number of triplet perturbations   ...      0
Total number of SOC perturbations       ...      0


Info: (ORCA_SCFRESP): Found parallel group flag:
                      Will try to set up 2 WorkingGroups with 2 workers belonging to each group


Using XC Grid                  ... (CS_PdOAc_010_freq_01.group0.grid_cpscf.tmp) 
Recalculating density on grid  ... (CS_PdOAc_010_freq_01.group0.grho_cpscf0.tmp) done
Calculating the xc-kernel      ... (CS_PdOAc_010_freq_01.group0.fxc_cpscf0.tmp) done

                                **********************
                                * REAL PERTURBATIONS *
                                **********************



-------------------
SHARK CP-SCF DRIVER
-------------------

Dimension of the orbital basis          ...     96
Dimension of the CPSCF-problem          ...   1679
Number of operators                     ...      1
Max. number of iterations               ...    128
Max. DIIS space dimension               ...     20
Convergence Tolerance                   ... 1.0e-04
Number of perturbations                 ...     36
Perturbation type                       ... REAL

--------------------
DIIS EQUATION SOLVER
--------------------

  ITERATION   0:   ||err||_max =   3.6168e-01 (   4.0 sec   0/ 36 done)
  ITERATION   1:   ||err||_max =   4.0914e-01 (   3.4 sec   0/ 36 done)
  ITERATION   2:   ||err||_max =   2.3339e-02 (   2.6 sec   0/ 36 done)
  ITERATION   3:   ||err||_max =   6.4399e-03 (   3.5 sec   0/ 36 done)
  ITERATION   4:   ||err||_max =   2.4305e-03 (   2.5 sec   0/ 36 done)
  ITERATION   5:   ||err||_max =   8.9607e-04 (   4.6 sec   1/ 36 done)
  ITERATION   6:   ||err||_max =   4.0599e-04 (   4.6 sec  10/ 36 done)
  ITERATION   7:   ||err||_max =   1.3467e-04 (   4.7 sec  31/ 36 done)
  ITERATION   8:   ||err||_max =   7.0925e-05 (   1.7 sec  36/ 36 done)

CP-SCF equations solved in  35.4 sec
Response densities calculated in   0.2 sec

Maximum memory used throughout the entire SCFRESP-calculation: 18.4 MB


           ************************************************************
           *        Program running with 4 parallel MPI-processes     *
           *              working on a common directory               *
           ************************************************************

------------------------------------------------------------------------------
                              ORCA PROPERTY CALCULATIONS
------------------------------------------------------------------------------

GBWName                                 ... CS_PdOAc_010_freq_01.gbw
Number of atoms                         ...     12
Number of basis functions               ...     96
Max core memory                         ...   3500 MB

Electric properties:
Dipole moment                           ... YES
Quadrupole moment                       ...  NO
Static polarizability (Dipole/Dipole)   ...  NO
Static polarizability (Dipole/Quad.)    ...  NO
Static polarizability (Quad./Quad.)     ...  NO
Static polarizability (Velocity)        ...  NO

Atomic electric properties:
Dipole moment                           ...  NO
Quadrupole moment                       ...  NO
Static polarizability                   ...  NO

Choice of electric origin               ... Center of mass
Position of electric origin             ...    -1.062745    -0.455072    -0.893569

General magnetic properties:
Magnetizability                         ...  NO

EPR properties:
g-Tensor (aka g-matrix)                 ...  NO
Zero-Field splitting spin-orbit         ...  NO
Zero-field splitting spin-spin          ...  NO
Hyperfine couplings                     ...  NO (   0 nuclei)
Quadrupole couplings                    ...  NO (   0 nuclei)
Contact density                         ...  NO (   0 nuclei)

NMR properties:
Chemical shifts                         ...  NO (   0 nuclei)
Spin-rotation constants                 ...  NO (   0 nuclei)
Spin-spin couplings                     ...  NO (   0 nuclei,    0 pairs)

Choice of magnetic origin               ... GIAO
Position of magnetic origin             ...     0.000000     0.000000     0.000000

Properties with geometric perturbations:
SCF Hessian                             ... YES
IR spectrum                             ... YES
VCD spectrum                            ...  NO
X-ray spectroscopy properties:
SCF XES/XAS/RIXS spectra                ...  NO


-------------
DIPOLE MOMENT
-------------

Method             : SCF
Type of density    : Electron Density
Multiplicity       :   1
Irrep              :   0
Energy             :  -305.8835183926248078 Eh
Relativity type    : 
Basis              : AO
                                X                 Y                 Z
Electronic contribution:     -2.213202550       0.792978030      -0.214410941
Nuclear contribution   :      2.775033881      -1.104516922       0.359780835
                        -----------------------------------------
Total Dipole Moment    :      0.561831330      -0.311538892       0.145369894
                        -----------------------------------------
Magnitude (a.u.)       :      0.658667846
Magnitude (Debye)      :      1.674200613



--------------------
Rotational spectrum 
--------------------
 
Rotational constants in cm-1:             0.314546             0.074915             0.061203 
Rotational constants in MHz :          9429.842278          2245.903647          1834.808631 

Dipole components along the rotational axes: 
x,y,z [a.u.] :    -0.005532     0.658644     0.000745 
x,y,z [Debye]:    -0.014062     1.674140     0.001894 

 

Dipole moment calculation done in   0.1 sec 

-----------
SCF HESSIAN
-----------

Occupied/Occupied contributions to the Hessian:
   => Occupied/Occupied contributions              ... done (  1.1 sec)
Perturbed density contributions to the Hessian:
   => Perturbed density contributions              ... done (  0.1 sec)
Explicit contributions to the Hessian:
   => Nuclear repulsion Hessian                    ... done (  0.0 sec)
   => HCore and overlap Hessian                    ... done (  0.5 sec)
   => RI-J Hessian                                 ... done (  2.2 sec)
   => COSX Hessian                                 ... done ( 31.5 sec)
   => XC-Hessian                                   ... done (  5.9 sec)
   => Van der Waals-Hessian                        ... done (  0.9 sec)
   => Explicit contributions done
Dipole derivatives                                 ... done (  0.1 sec)
Mass weighting the Hessian           ... done
Calculating normal modes             ... done
Scaling frequencies                  ... done

-----------------------
VIBRATIONAL FREQUENCIES
-----------------------

Scaling factor for frequencies =  1.000000000  (already applied!)

     0:       0.00 cm**-1
     1:       0.00 cm**-1
     2:       0.00 cm**-1
     3:       0.00 cm**-1
     4:       0.00 cm**-1
     5:       0.00 cm**-1
     6:      73.80 cm**-1
     7:     100.84 cm**-1
     8:     154.23 cm**-1
     9:     214.80 cm**-1
    10:     410.62 cm**-1
    11:     455.64 cm**-1
    12:     595.84 cm**-1
    13:     663.81 cm**-1
    14:     730.86 cm**-1
    15:     869.83 cm**-1
    16:     888.28 cm**-1
    17:    1005.97 cm**-1
    18:    1008.18 cm**-1
    19:    1052.09 cm**-1
    20:    1065.37 cm**-1
    21:    1206.15 cm**-1
    22:    1288.10 cm**-1
    23:    1314.89 cm**-1
    24:    1398.89 cm**-1
    25:    1413.53 cm**-1
    26:    1451.31 cm**-1
    27:    1458.44 cm**-1
    28:    1755.40 cm**-1
    29:    1905.57 cm**-1
    30:    3061.94 cm**-1
    31:    3150.21 cm**-1
    32:    3184.60 cm**-1
    33:    3199.04 cm**-1
    34:    3234.19 cm**-1
    35:    3281.64 cm**-1


------------
NORMAL MODES
------------

These modes are the Cartesian displacements weighted by the diagonal matrix
M(i,i)=1/sqrt(m[i]) where m[i] is the mass of the displaced atom
Thus, these vectors are normalized but *not* orthogonal

                  0          1          2          3          4          5    
      0       0.000000   0.000000   0.000000   0.000000   0.000000   0.000000
      1       0.000000   0.000000   0.000000   0.000000   0.000000   0.000000
      2       0.000000   0.000000   0.000000   0.000000   0.000000   0.000000
      3       0.000000   0.000000   0.000000   0.000000   0.000000   0.000000
      4       0.000000   0.000000   0.000000   0.000000   0.000000   0.000000
      5       0.000000   0.000000   0.000000   0.000000   0.000000   0.000000
      6       0.000000   0.000000   0.000000   0.000000   0.000000   0.000000
      7       0.000000   0.000000   0.000000   0.000000   0.000000   0.000000
      8       0.000000   0.000000   0.000000   0.000000   0.000000   0.000000
      9       0.000000   0.000000   0.000000   0.000000   0.000000   0.000000
     10       0.000000   0.000000   0.000000   0.000000   0.000000   0.000000
     11       0.000000   0.000000   0.000000   0.000000   0.000000   0.000000
     12       0.000000   0.000000   0.000000   0.000000   0.000000   0.000000
     13       0.000000   0.000000   0.000000   0.000000   0.000000   0.000000
     14       0.000000   0.000000   0.000000   0.000000   0.000000   0.000000
     15       0.000000   0.000000   0.000000   0.000000   0.000000   0.000000
     16       0.000000   0.000000   0.000000   0.000000   0.000000   0.000000
     17       0.000000   0.000000   0.000000   0.000000   0.000000   0.000000
     18       0.000000   0.000000   0.000000   0.000000   0.000000   0.000000
     19       0.000000   0.000000   0.000000   0.000000   0.000000   0.000000
     20       0.000000   0.000000   0.000000   0.000000   0.000000   0.000000
     21       0.000000   0.000000   0.000000   0.000000   0.000000   0.000000
     22       0.000000   0.000000   0.000000   0.000000   0.000000   0.000000
     23       0.000000   0.000000   0.000000   0.000000   0.000000   0.000000
     24       0.000000   0.000000   0.000000   0.000000   0.000000   0.000000
     25       0.000000   0.000000   0.000000   0.000000   0.000000   0.000000
     26       0.000000   0.000000   0.000000   0.000000   0.000000   0.000000
     27       0.000000   0.000000   0.000000   0.000000   0.000000   0.000000
     28       0.000000   0.000000   0.000000   0.000000   0.000000   0.000000
     29       0.000000   0.000000   0.000000   0.000000   0.000000   0.000000
     30       0.000000   0.000000   0.000000   0.000000   0.000000   0.000000
     31       0.000000   0.000000   0.000000   0.000000   0.000000   0.000000
     32       0.000000   0.000000   0.000000   0.000000   0.000000   0.000000
     33       0.000000   0.000000   0.000000   0.000000   0.000000   0.000000
     34       0.000000   0.000000   0.000000   0.000000   0.000000   0.000000
     35       0.000000   0.000000   0.000000   0.000000   0.000000   0.000000
                  6          7          8          9         10         11    
      0      -0.007007  -0.027439   0.038537   0.147947  -0.008937   0.008214
      1      -0.027997  -0.112622   0.151258  -0.089194   0.089404   0.080052
      2      -0.033655  -0.134173   0.181742   0.042372  -0.073345  -0.068198
      3      -0.002468   0.000151   0.010971   0.084170   0.047272   0.140987
      4      -0.010407  -0.000765   0.042471  -0.021056  -0.037970  -0.009366
      5      -0.012422  -0.001061   0.050911  -0.000681   0.021595  -0.021551
      6       0.005169   0.020648   0.009539   0.143494  -0.043498   0.141607
      7       0.020434   0.080998   0.036097   0.079746  -0.196149  -0.007373
      8       0.024673   0.095906   0.042126  -0.096895   0.173355  -0.023448
      9       0.000644   0.006715  -0.026249  -0.183568  -0.174498  -0.046686
     10       0.002839   0.028568  -0.102062  -0.036536  -0.069476  -0.028762
     11       0.003391   0.034189  -0.121061   0.069489   0.094480   0.033961
     12       0.532977   0.071838   0.134141  -0.244242  -0.283698  -0.125275
     13       0.207207   0.031222   0.058821  -0.139507  -0.241571  -0.152113
     14       0.149026   0.084471  -0.216611   0.164256   0.246829   0.142392
     15      -0.435241  -0.043754  -0.171629  -0.240781  -0.279446  -0.122371
     16       0.205006   0.088577  -0.196535  -0.132997  -0.224209  -0.139106
     17       0.344420   0.059672   0.058240   0.164393   0.259302   0.152675
     18      -0.077424   0.002410  -0.069399  -0.314309  -0.383585  -0.195213
     19      -0.322648   0.011972  -0.275573   0.139153   0.206724   0.168090
     20      -0.385938   0.013747  -0.331523  -0.047423  -0.091529  -0.099215
     21       0.004952  -0.034695  -0.020530  -0.000732   0.111951  -0.204137
     22       0.020310  -0.140953  -0.083545  -0.071804   0.113760   0.101751
     23       0.024186  -0.168160  -0.099374   0.062480  -0.118623  -0.042841
     24       0.020872  -0.096598  -0.079771  -0.055354   0.132380  -0.216007
     25       0.085439  -0.394290  -0.325218  -0.188133   0.167275   0.068294
     26       0.102035  -0.471278  -0.386787   0.177319  -0.168886  -0.012001
     27      -0.003074   0.032429  -0.011324  -0.172675   0.132226  -0.048718
     28      -0.012937   0.135778  -0.040633   0.129438   0.120384  -0.108246
     29      -0.015493   0.162616  -0.050132  -0.072916  -0.127624   0.100361
     30      -0.019877   0.100131   0.052550  -0.052746   0.152263  -0.245972
     31      -0.081767   0.412951   0.219893   0.330229   0.153484  -0.442523
     32      -0.097824   0.493952   0.259816  -0.271941  -0.157916   0.419343
     33       0.007220   0.018944  -0.067349  -0.467685   0.100782   0.416147
     34       0.029140   0.081875  -0.265362   0.140723   0.122872  -0.124509
     35       0.034876   0.098129  -0.319017  -0.016753  -0.124096   0.018136
                 12         13         14         15         16         17    
      0      -0.014693   0.166652  -0.014532   0.186726  -0.000719   0.088149
      1      -0.057919  -0.042593  -0.059551  -0.062890  -0.007752   0.029720
      2      -0.069602   0.001469  -0.070930   0.013563  -0.008787  -0.043124
      3       0.049890   0.086142   0.004379  -0.080840  -0.000201  -0.028715
      4       0.200641   0.100942   0.016369   0.001155   0.000893   0.114525
      5       0.240182  -0.100338   0.019208   0.015590   0.001137  -0.089059
      6      -0.017751  -0.074150  -0.002128  -0.094904  -0.000734  -0.154776
      7      -0.071355  -0.170801  -0.009319   0.013689  -0.000817   0.051191
      8      -0.086120   0.157925  -0.010479   0.008428  -0.000969  -0.010920
      9       0.004672  -0.079488   0.001194  -0.042160   0.000234   0.171009
     10       0.017953   0.290564   0.006525  -0.042546   0.001934  -0.093013
     11       0.023231  -0.226956   0.006351   0.044472   0.002780   0.041563
     12      -0.109801  -0.131549  -0.016622   0.074965  -0.004181  -0.118605
     13       0.312791   0.223326   0.031611   0.102354   0.009418  -0.475796
     14      -0.488415  -0.168794  -0.043775  -0.066411  -0.011572   0.338140
     15       0.050866  -0.129257   0.011093   0.067585   0.003900  -0.102371
     16      -0.556613   0.228948  -0.050483   0.066947  -0.012861  -0.384962
     17       0.207356  -0.158226   0.019468  -0.104339   0.005043   0.429184
     18      -0.052025  -0.213071  -0.004176   0.137724  -0.000135  -0.139527
     19      -0.209025   0.477689  -0.012987  -0.283076  -0.005388   0.305597
     20      -0.252425  -0.357137  -0.018334   0.208163  -0.003345  -0.223853
     21      -0.006637  -0.006629   0.028792  -0.017306   0.010799   0.014632
     22      -0.026744  -0.090426   0.117086   0.057052   0.045121  -0.038647
     23      -0.032639   0.075200   0.140843  -0.044715   0.053348   0.024166
     24       0.013224  -0.065782  -0.035773  -0.121783  -0.003913  -0.003684
     25       0.054339  -0.210896  -0.147317  -0.150780  -0.013800  -0.067823
     26       0.063866   0.193005  -0.175722   0.152084  -0.014554   0.103102
     27       0.002527  -0.065981  -0.002419  -0.023391  -0.026551  -0.026225
     28       0.009904  -0.063937  -0.009060   0.093534  -0.107794  -0.034681
     29       0.011472   0.067214  -0.010678  -0.071346  -0.130089   0.035151
     30      -0.019064  -0.083811   0.062098  -0.263245   0.117572  -0.012158
     31      -0.078574  -0.093795   0.254811  -0.326683   0.486672   0.000260
     32      -0.094389   0.090923   0.304301   0.318346   0.587485   0.025645
     33       0.030602  -0.058821  -0.132865   0.597922   0.097123  -0.123529
     34       0.124887  -0.063982  -0.542538   0.071018   0.385071  -0.044067
     35       0.149116   0.073289  -0.649372  -0.189622   0.459535   0.044704
                 18         19         20         21         22         23    
      0       0.001240  -0.137997   0.003482  -0.099584  -0.105138  -0.000906
      1      -0.002198  -0.099884   0.017568   0.187979  -0.089321  -0.046253
      2      -0.004143   0.111760   0.022710  -0.136516   0.096511   0.038960
      3      -0.001176   0.004825  -0.032842   0.027536   0.158761   0.031237
      4       0.000022  -0.036888  -0.132079   0.044482   0.196516   0.054135
      5      -0.004519   0.032812  -0.157839  -0.042847  -0.197566  -0.051838
      6      -0.002755   0.038223   0.006741   0.037504  -0.011797   0.000958
      7       0.002566   0.010418   0.027015  -0.018191  -0.027156  -0.011142
      8       0.001650  -0.017346   0.032035   0.007396   0.025185   0.009115
      9       0.004090   0.106622   0.027751  -0.058532  -0.063732  -0.016921
     10       0.000920   0.055455   0.106931  -0.031824  -0.010394   0.007866
     11       0.004131  -0.070898   0.126707   0.038700   0.021934  -0.003061
     12      -0.008992  -0.125681  -0.235895   0.080645   0.192028   0.050422
     13       0.000649  -0.181659   0.360178   0.059275  -0.054256  -0.036442
     14      -0.006659   0.082827  -0.455830   0.015406   0.265800   0.106463
     15       0.003073  -0.109077   0.184746   0.062620   0.134128   0.031165
     16      -0.023912  -0.075818  -0.559152  -0.019666  -0.304338  -0.119444
     17       0.014919   0.184513   0.233905  -0.077384  -0.031824   0.007395
     18      -0.004321  -0.188342  -0.057813   0.082387   0.230148   0.080479
     19      -0.000079   0.453074  -0.220045  -0.220109  -0.404799  -0.122440
     20      -0.012001  -0.334727  -0.277713   0.166864   0.290110   0.085497
     21       0.015899   0.038983   0.000071   0.194239  -0.038934   0.055920
     22       0.063239  -0.016953  -0.001801  -0.224012   0.041828  -0.007790
     23       0.077106   0.006110  -0.001607   0.147370  -0.026910  -0.004966
     24      -0.131190  -0.003701   0.004662   0.113225  -0.222106   0.353981
     25      -0.538452  -0.107275   0.017897  -0.414060  -0.326302   0.562550
     26      -0.641782   0.090097   0.024122   0.322326   0.317274  -0.541111
     27      -0.003213  -0.010806   0.000202  -0.099631   0.049753  -0.081701
     28      -0.011362   0.116813   0.002385   0.060178   0.005936   0.016505
     29      -0.012111  -0.095413   0.001021  -0.029940  -0.015099   0.002883
     30      -0.065418  -0.179925   0.000216  -0.334615   0.135730  -0.235804
     31      -0.266225  -0.185825   0.005724  -0.339133   0.140990  -0.227160
     32      -0.317470   0.191507   0.010453   0.351231  -0.145628   0.237872
     33       0.045010   0.526632  -0.000767   0.223085   0.124824  -0.144445
     34       0.192802   0.106363  -0.019527   0.040180   0.010533   0.011272
     35       0.232726  -0.194855  -0.025901  -0.078893  -0.033965   0.019799
                 24         25         26         27         28         29    
      0      -0.027517   0.006194   0.004677   0.000435  -0.026387   0.039582
      1      -0.028313   0.006172   0.001734   0.001860  -0.017955  -0.027608
      2       0.029358  -0.006403  -0.002468   0.002351   0.020432   0.014821
      3       0.052877   0.022894  -0.005573  -0.003634  -0.003692  -0.683346
      4       0.062148   0.042134  -0.018969  -0.015385  -0.041967   0.359676
      5      -0.062857  -0.039931   0.017202  -0.018754   0.035864  -0.158467
      6      -0.016995  -0.008716  -0.015450   0.000098  -0.000816   0.450113
      7      -0.001883  -0.003383   0.011096   0.001426   0.005394  -0.207808
      8       0.005095   0.004628  -0.006047   0.001557  -0.004347   0.080031
      9       0.026112   0.005881  -0.040965  -0.008443   0.000165   0.047357
     10      -0.125076  -0.056670  -0.012259  -0.033720   0.011803  -0.055898
     11       0.099646   0.046450   0.019397  -0.038938  -0.009905   0.036903
     12      -0.051692   0.001815   0.553369   0.304535  -0.003348   0.090160
     13       0.241487   0.101509   0.160891   0.300133  -0.003630  -0.059930
     14      -0.472135  -0.179136   0.240488  -0.240580   0.015226   0.086657
     15       0.014429   0.024751   0.449364  -0.275850  -0.005939   0.077235
     16       0.512527   0.192751  -0.300141  -0.237248  -0.014596  -0.110895
     17      -0.151830  -0.072747  -0.325968   0.313090   0.001915   0.023067
     18      -0.275119  -0.113508  -0.275807   0.105690   0.006514  -0.145719
     19       0.268881   0.098411   0.298015   0.464410   0.003946   0.150982
     20      -0.173161  -0.062090  -0.207446   0.546533  -0.004717  -0.097176
     21       0.031250  -0.038752  -0.000213   0.000159   0.331810  -0.008077
     22       0.034947  -0.063912   0.001535   0.000554   0.215717   0.034781
     23      -0.035555   0.061283  -0.001262   0.000695  -0.247855  -0.027339
     24      -0.023427   0.115507  -0.001064   0.000170   0.124881  -0.089756
     25      -0.085014   0.245598   0.000392   0.000140  -0.371555  -0.073520
     26       0.075717  -0.228461  -0.000100  -0.000589   0.284750   0.079850
     27       0.013753  -0.059094   0.002060  -0.000085  -0.321801  -0.001873
     28       0.005416  -0.008635   0.000050   0.000011  -0.147454  -0.017672
     29      -0.007296   0.019194  -0.000460   0.000037   0.188663   0.015116
     30      -0.114794   0.179716  -0.004066   0.000100  -0.111758   0.018950
     31      -0.200029   0.376356  -0.010002   0.000556   0.346700   0.025612
     32       0.190336  -0.350789   0.009194   0.000367  -0.266815  -0.025209
     33      -0.320350   0.654784  -0.018281  -0.000073   0.344174  -0.026537
     34       0.010304  -0.021249   0.000423  -0.001752  -0.215480  -0.019309
     35       0.056477  -0.115226   0.003386  -0.002134   0.110331   0.021486
                 30         31         32         33         34         35    
      0      -0.000023  -0.000018   0.000041  -0.000265   0.000813  -0.000070
      1       0.000077  -0.000078   0.000418  -0.000080   0.000287  -0.000500
      2      -0.000058  -0.000088  -0.000356   0.000127  -0.000411   0.000431
      3       0.000279   0.000068  -0.000502   0.002325  -0.002266  -0.000299
      4       0.001998   0.000259  -0.000246  -0.001117   0.000407   0.000007
      5      -0.001724   0.000344   0.000310   0.000454   0.000134   0.000058
      6      -0.000417   0.000040   0.000147  -0.000950   0.000496   0.000100
      7       0.000081   0.000161  -0.000109   0.000340  -0.000700  -0.000088
      8       0.000016   0.000193   0.000061  -0.000089   0.000483   0.000053
      9       0.026724   0.014203   0.000957   0.088952  -0.000650   0.000010
     10      -0.037422   0.059070   0.000263   0.013964  -0.000036   0.000009
     11       0.026335   0.070238  -0.000408  -0.029808   0.000162  -0.000010
     12      -0.262412   0.304102  -0.000896  -0.122093   0.001345   0.000012
     13       0.464628  -0.518358   0.001719   0.226347  -0.002374  -0.000107
     14       0.338585  -0.368858   0.001301   0.161465  -0.001787  -0.000057
     15      -0.419966  -0.472853  -0.001519  -0.194583   0.002114   0.000048
     16      -0.185604  -0.194398  -0.000759  -0.086628   0.000989   0.000035
     17      -0.440052  -0.482358  -0.001681  -0.211303   0.002209   0.000113
     18       0.368580  -0.001681  -0.009125  -0.750826   0.005748  -0.000018
     19       0.142410   0.004522  -0.003592  -0.295004   0.002854   0.000026
     20      -0.192880   0.008500   0.004835   0.397233  -0.003540  -0.000019
     21      -0.000251   0.000002  -0.002158  -0.000824  -0.083283  -0.012780
     22      -0.000162  -0.000006   0.007197  -0.000113   0.026954   0.004429
     23       0.000189  -0.000004  -0.005569   0.000263  -0.005528  -0.001092
     24       0.001074  -0.000004   0.112764   0.006656   0.908149   0.131031
     25      -0.000214   0.000069  -0.045336  -0.002039  -0.351270  -0.049403
     26      -0.000042   0.000074   0.014849   0.000344   0.108117   0.014530
     27       0.000001   0.000005  -0.058914   0.000923   0.021147  -0.050822
     28       0.000004   0.000003  -0.019492   0.000246  -0.005624   0.070512
     29      -0.000003  -0.000001   0.028283  -0.000394   0.000389  -0.048536
     30       0.001138  -0.000051   0.684838  -0.009432  -0.157832   0.561884
     31      -0.000562   0.000004  -0.303585   0.004094   0.071456  -0.241023
     32       0.000248  -0.000027   0.114017  -0.001496  -0.027515   0.086820
     33      -0.000206   0.000005  -0.066763   0.000772  -0.005168   0.067899
     34       0.000830  -0.000046   0.492965  -0.005561   0.026322  -0.593353
     35      -0.000655   0.000024  -0.398119   0.004485  -0.020929   0.481729


-----------
IR SPECTRUM
-----------

 Mode   freq       eps      Int      T**2         TX        TY        TZ
       cm**-1   L/(mol*cm) km/mol    a.u.
----------------------------------------------------------------------------
  6:     73.80   0.000256    1.30  0.001084  ( 0.004789  0.020864  0.025006)
  7:    100.84   0.000097    0.49  0.000301  (-0.002749 -0.010956 -0.013184)
  8:    154.23   0.000963    4.87  0.001949  (-0.007093 -0.028010 -0.033378)
  9:    214.80   0.001367    6.91  0.001987  (-0.031390 -0.020572  0.024043)
 10:    410.62   0.000761    3.84  0.000578  ( 0.003085  0.017970 -0.015676)
 11:    455.64   0.000177    0.90  0.000121  ( 0.004913  0.007002 -0.006943)
 12:    595.84   0.001055    5.33  0.000553  ( 0.003660  0.014823  0.017875)
 13:    663.81   0.002184   11.04  0.001027  ( 0.004617  0.023915 -0.020823)
 14:    730.86   0.000466    2.36  0.000199  (-0.002044 -0.008807 -0.010835)
 15:    869.83   0.002259   11.42  0.000811  (-0.027627 -0.001736  0.006655)
 16:    888.28   0.010913   55.15  0.003834  ( 0.009348  0.039175  0.047029)
 17:   1005.97   0.000352    1.78  0.000109  (-0.003130  0.008529 -0.005160)
 18:   1008.18   0.003966   20.04  0.001228  (-0.005565 -0.021922 -0.026760)
 19:   1052.09   0.006032   30.48  0.001789  ( 0.030891  0.018921 -0.021839)
 20:   1065.37   0.002232   11.28  0.000654  (-0.003811 -0.015822 -0.019723)
 21:   1206.15   0.023342  117.96  0.006039  (-0.022858 -0.054603  0.050351)
 22:   1288.10   0.097100  490.70  0.023524  ( 0.095510  0.081538 -0.088053)
 23:   1314.89   0.017886   90.39  0.004245  ( 0.025154  0.043424 -0.041553)
 24:   1398.89   0.031216  157.75  0.006964  ( 0.027295  0.057499 -0.053968)
 25:   1413.53   0.003572   18.05  0.000789  ( 0.009344  0.019291 -0.018143)
 26:   1451.31   0.002592   13.10  0.000557  ( 0.020818 -0.010346  0.004107)
 27:   1458.44   0.002503   12.65  0.000536  ( 0.003971  0.014783  0.017358)
 28:   1755.40   0.016763   84.71  0.002980  ( 0.037852  0.026037 -0.029483)
 29:   1905.57   0.059337  299.87  0.009717  (-0.096185  0.021492  0.001972)
 30:   3061.94   0.000022    0.11  0.000002  ( 0.001247 -0.000751  0.000374)
 31:   3150.21   0.000088    0.44  0.000009  ( 0.000496  0.001888  0.002205)
 32:   3184.60   0.000127    0.64  0.000012  ( 0.001164  0.002445 -0.002263)
 33:   3199.04   0.000343    1.73  0.000033  ( 0.003341  0.003223 -0.003455)
 34:   3234.19   0.001670    8.44  0.000161  ( 0.007128  0.007290 -0.007561)
 35:   3281.64   0.000139    0.70  0.000013  (-0.000982  0.002767 -0.002154)

* The epsilon (eps) is given for a Dirac delta lineshape.
** The dipole moment derivative (T) already includes vibrational overlap.

The first frequency considered to be a vibration is 6
The total number of vibrations considered is 30


--------------------------
THERMOCHEMISTRY AT 298.15K
--------------------------

Temperature         ...   298.15 K
Pressure            ...     1.00 atm
Total Mass          ...    86.09 AMU
Quasi RRHO          ...     True
Cut-Off Frequency   ...     1.00 cm^-1

Throughout the following assumptions are being made:
  (1) The electronic state is orbitally nondegenerate
  (2) There are no thermally accessible electronically excited states
  (3) Hindered rotations indicated by low frequency modes are not
      treated as such but are treated as vibrations and this may
      cause some error
  (4) All equations used are the standard statistical mechanics
      equations for an ideal gas
  (5) All vibrations are strictly harmonic

freq.      73.80  E(vib)   ...       0.49 
freq.     100.84  E(vib)   ...       0.46 
freq.     154.23  E(vib)   ...       0.40 
freq.     214.80  E(vib)   ...       0.34 
freq.     410.62  E(vib)   ...       0.19 
freq.     455.64  E(vib)   ...       0.16 
freq.     595.84  E(vib)   ...       0.10 
freq.     663.81  E(vib)   ...       0.08 
freq.     730.86  E(vib)   ...       0.06 
freq.     869.83  E(vib)   ...       0.04 
freq.     888.28  E(vib)   ...       0.04 
freq.    1005.97  E(vib)   ...       0.02 
freq.    1008.18  E(vib)   ...       0.02 
freq.    1052.09  E(vib)   ...       0.02 
freq.    1065.37  E(vib)   ...       0.02 
freq.    1206.15  E(vib)   ...       0.01 
freq.    1288.10  E(vib)   ...       0.01 
freq.    1314.89  E(vib)   ...       0.01 
freq.    1398.89  E(vib)   ...       0.00 
freq.    1413.53  E(vib)   ...       0.00 
freq.    1451.31  E(vib)   ...       0.00 
freq.    1458.44  E(vib)   ...       0.00 
freq.    1755.40  E(vib)   ...       0.00 
freq.    1905.57  E(vib)   ...       0.00 
freq.    3061.94  E(vib)   ...       0.00 
freq.    3150.21  E(vib)   ...       0.00 
freq.    3184.60  E(vib)   ...       0.00 
freq.    3199.04  E(vib)   ...       0.00 
freq.    3234.19  E(vib)   ...       0.00 
freq.    3281.64  E(vib)   ...       0.00 

------------
INNER ENERGY
------------

The inner energy is: U= E(el) + E(ZPE) + E(vib) + E(rot) + E(trans)
    E(el)   - is the total energy from the electronic structure calculation
              = E(kin-el) + E(nuc-el) + E(el-el) + E(nuc-nuc)
    E(ZPE)  - the the zero temperature vibrational energy from the frequency calculation
    E(vib)  - the the finite temperature correction to E(ZPE) due to population
              of excited vibrational states
    E(rot)  - is the rotational thermal energy
    E(trans)- is the translational thermal energy

Summary of contributions to the inner energy U:
Electronic energy                ...   -305.89026539 Eh
Zero point energy                ...      0.09475821 Eh      59.46 kcal/mol
Thermal vibrational correction   ...      0.00395738 Eh       2.48 kcal/mol
Thermal rotational correction    ...      0.00141627 Eh       0.89 kcal/mol
Thermal translational correction ...      0.00141627 Eh       0.89 kcal/mol
-----------------------------------------------------------------------
Total thermal energy                   -305.78871726 Eh


Summary of corrections to the electronic energy:
(perhaps to be used in another calculation)
Total thermal correction                  0.00678992 Eh       4.26 kcal/mol
Non-thermal (ZPE) correction              0.09475821 Eh      59.46 kcal/mol
-----------------------------------------------------------------------
Total correction                          0.10154813 Eh      63.72 kcal/mol


--------
ENTHALPY
--------

The enthalpy is H = U + kB*T
                kB is Boltzmann's constant
Total thermal energy              ...   -305.78871726 Eh 
Thermal Enthalpy correction       ...      0.00094421 Eh       0.59 kcal/mol
-----------------------------------------------------------------------
Total Enthalpy                    ...   -305.78777305 Eh


Note: Only C1 symmetry has been detected, increase convergence thresholds 
      if your molecule has a higher symmetry. Symmetry factor of 1.0 is   
      used for the rotational entropy correction. 
 

Note: Rotational entropy computed according to Herzberg 
Infrared and Raman Spectra, Chapter V,1, Van Nostrand Reinhold, 1945 
Point Group:  C1, Symmetry Number:   1  
Rotational constants in cm-1:     0.314546     0.074915     0.061203 

Vibrational entropy computed according to the QRRHO of S. Grimme
Chem.Eur.J. 2012 18 9955 using a reference frequency of 100.0 cm-1


-------
ENTROPY
-------

The entropy contributions are T*S = T*(S(el)+S(vib)+S(rot)+S(trans))
     S(el)   - electronic entropy
     S(vib)  - vibrational entropy
     S(rot)  - rotational entropy
     S(trans)- translational entropy
The entropies will be listed as multiplied by the temperature to get
units of energy

Electronic entropy                ...      0.00000000 Eh      0.00 kcal/mol
Vibrational entropy               ...      0.00697958 Eh      4.38 kcal/mol
Rotational entropy                ...      0.01259903 Eh      7.91 kcal/mol
Translational entropy             ...      0.01865912 Eh     11.71 kcal/mol
-----------------------------------------------------------------------
Final entropy term                ...      0.03823773 Eh     23.99 kcal/mol

In case the symmetry of your molecule has not been determined correctly
or in case you have a reason to use a different symmetry number we print 
out the resulting rotational entropy values for sn=1,12:

 non-linear molecules -----------------------------------
|  sn= 1 | S(rot)=       0.01259903 Eh      7.91 kcal/mol|
|  sn= 2 | S(rot)=       0.01194458 Eh      7.50 kcal/mol|
|  sn= 3 | S(rot)=       0.01156174 Eh      7.26 kcal/mol|
|  sn= 4 | S(rot)=       0.01129012 Eh      7.08 kcal/mol|
|  sn= 5 | S(rot)=       0.01107943 Eh      6.95 kcal/mol|
|  sn= 6 | S(rot)=       0.01090729 Eh      6.84 kcal/mol|
|  sn= 7 | S(rot)=       0.01076174 Eh      6.75 kcal/mol|
|  sn= 8 | S(rot)=       0.01063566 Eh      6.67 kcal/mol|
|  sn= 9 | S(rot)=       0.01052445 Eh      6.60 kcal/mol|
|  sn=10 | S(rot)=       0.01042497 Eh      6.54 kcal/mol|
|  sn=11 | S(rot)=       0.01033498 Eh      6.49 kcal/mol|
|  sn=12 | S(rot)=       0.01025283 Eh      6.43 kcal/mol|
 linear molecules ---------------------------------------
|  Dinfh | S(rot)=       0.00796344 Eh      5.00 kcal/mol|
|  Cinfv | S(rot)=       0.00861789 Eh      5.41 kcal/mol|
 --------------------------------------------------------


-------------------
GIBBS FREE ENERGY
-------------------

The Gibbs free energy is G = H - T*S

Total enthalpy                    ...   -305.78777305 Eh 
Total entropy correction          ...     -0.03823773 Eh    -23.99 kcal/mol
-----------------------------------------------------------------------
Final Gibbs free energy         ...   -305.82601078 Eh

For completeness - the Gibbs free energy minus the electronic energy
G-E(el)                           ...      0.06425460 Eh     40.32 kcal/mol


Maximum memory used throughout the entire PROP-calculation: 27.1 MB

--------------------------------
SUGGESTED CITATIONS FOR THIS RUN
--------------------------------

Below you find a list of papers that are relevant to this ORCA run
We neither can nor want to force you to cite these papers, but we appreciate if you do
You receive ORCA, which is the product of decades of hard work by many enthusiastic individuals, for free
The only thing we kindly ask in return is that you cite our papers,
We deeply appreciate it, if you show your appreciation for ORCA by not just citing the generic ORCA reference.

Please note that relegating all ORCA citations to the supporting information does *not* help us.
SI sections are not indexed - citations you put there will not count into any citation statistics
But we need these citations in order to attract the funding resources that allow us to do what we are doing

Therefore, if you are a happy ORCA user, please consider citing a few of the papers listed below in the main body of your paper

In addition to the list printed below, the program has created the file CS_PdOAc_010_freq_01.bibtex that contains the list in bibtex format
You can import this file easily into all common literature databanks and citation aid programs


List of essential papers. We consider these as the minimum necessary citations

  1. Neese,F.
     Software update: the ORCA program system, version 5.0
     WIRES Comput. Molec. Sci., 2022 12(1)e1606
     doi.org/10.1002/wcms.1606

List of papers to cite with high priority. The work reported in these papers was absolutely
necessary for this run to complete.
Our perspective: the developers of density functionals and basis sets usually get cited in chemistry papers
Good! But without the algorithms to do something with them, the functionals or basis sets would not do anything.
Hence, in our opinion, the algorithm design and method developments papers are equally worthy of getting cited

  1. Neese,F.
     An improvement of the resolution of the identity approximation for the formation of the Coulomb matrix
     J. Comp. Chem., 2003 24(14)1740-1747
     doi.org/10.1002/jcc.10318
  2. Neese,F.; Wennmohs,F.; Hansen,A.; Becker,U.
     Efficient, approximate and parallel Hartree-Fock and hybrid DFT calculations. A 'chain-of-spheres' algorithm for the Hartree-Fock exchange
     Chem. Phys., 2009 356(1-3)98-109
     doi.org/10.1016/j.chemphys.2008.10.036
  3. Bykov,D.; Petrenko,T.; Izsak,R.; Kossmann,S.; Becker,U.; Valeev,E.; Neese,F.
     Efficient implementation of the analytic second derivatives of Hartree-Fock and hybrid DFT energies: a detailed analysis of different approximations
     Molec. Phys., 2015 113 1961-1977
     doi.org/10.1080/00268976.2015.1025114
  4. Helmich-Paris,B.; de Souza,B.; Neese,F.; Izsák,R.
     An improved chain of spheres for exchange algorithm
     J. Chem. Phys., 2021 155 104109
     doi.org/doi: 10.1063/5.0058766.
  5. Neese,F.
     The SHARK Integral Generation and Digestion System
     J. Comp. Chem., 2022  1-16
     doi.org/10.1002/jcc.26942
  6. Grimme,S.; Antony,J.; Ehrlich,S.; Krieg,H.
     A consistent and accurate ab initio parametrization of density functional dispersion correction (DFT-D) for the 94 elements H-Pu
     J. Chem. Phys., 2010 132 154104-XXXX
     doi.org/10.1063/1.3382344
  7. Grimme,S.; Ehrlich,S.; Goerigk,L.
     Effect of the damping function in dispersion corrected density functional theory
     J. Comput. Chem., 2011 32(7)1456-1465
     doi.org/10.1002/jcc.21759

List of suggested additional citations. These are papers that are important in the 'surrounding' of 
of this run, or papers that preceded the highly important papers. If you like your results we are grateful for a citation.

  1. Izsak,R.; Neese,F.
     An overlap fitted chain of spheres exchange method
     J. Chem. Phys., 2011 135 144105
     doi.org/10.1063/1.3646921
  2. Izsak,R.; Hansen,A.; Neese,F.
     The resolution of identity and chain of spheres approximations for the LPNO-CCSD singles Fock term
     Molec. Phys., 2012 110 2413-2417
     doi.org/10.1080/00268976.2012.687466
  3. Neese,F.
     The ORCA program system
     WIRES Comput. Molec. Sci., 2012 2(1)73-78
     doi.org/10.1002/wcms.81
  4. Izsak,R.; Neese,F.; Klopper,W.
     Robust fitting techniques in the chain of spheres approximation to the Fock exchange: The role of the complementary space
     J. Chem. Phys., 2013 139 
     doi.org/10.1063/1.4819264
  5. Neese,F.
     Software update: the ORCA program system, version 4.0
     WIRES Comput. Molec. Sci., 2018 8(1)1-6
     doi.org/10.1002/wcms.1327
  6. Neese,F.; Wennmohs,F.; Becker,U.; Riplinger,C.
     The ORCA quantum chemistry program package
     J. Chem. Phys., 2020 152 Art. No. L224108
     doi.org/10.1063/5.0004608

List of optional additional citations

  1. Neese,F.
     Approximate second-order SCF convergence for spin unrestricted wavefunctions
     Chem. Phys. Lett., 2000 325(1-3)93-98
     doi.org/10.1016/s0009-2614(00)00662-x

Timings for individual modules:

Sum of individual times          ...      155.048 sec (=   2.584 min)
Startup calculation              ...        3.644 sec (=   0.061 min)   2.4 %
SCF iterations                   ...       51.167 sec (=   0.853 min)  33.0 %
Property integrals               ...       17.797 sec (=   0.297 min)  11.5 %
SCF Response                     ...       38.185 sec (=   0.636 min)  24.6 %
Property calculations            ...       44.256 sec (=   0.738 min)  28.5 %
                             ****ORCA TERMINATED NORMALLY****
TOTAL RUN TIME: 0 days 0 hours 2 minutes 37 seconds 689 msec
