
                                 *****************
                                 * O   R   C   A *
                                 *****************

                                            #,                                       
                                            ###                                      
                                            ####                                     
                                            #####                                    
                                            ######                                   
                                           ########,                                 
                                     ,,################,,,,,                         
                               ,,#################################,,                 
                          ,,##########################################,,             
                       ,#########################################, ''#####,          
                    ,#############################################,,   '####,        
                  ,##################################################,,,,####,       
                ,###########''''           ''''###############################       
              ,#####''   ,,,,##########,,,,          '''####'''          '####       
            ,##' ,,,,###########################,,,                        '##       
           ' ,,###''''                  '''############,,,                           
         ,,##''                                '''############,,,,        ,,,,,,###''
      ,#''                                            '''#######################'''  
     '                                                          ''''####''''         
             ,#######,   #######,   ,#######,      ##                                
            ,#'     '#,  ##    ##  ,#'     '#,    #''#        ,####,   ,####,        
            ##       ##  ##   ,#'  ##            #'  '#       #'       #'  '#        
            ##       ##  #######   ##           ,######,      #####,   #    #        
            '#,     ,#'  ##    ##  '#,     ,#' ,#      #,     #,   #   #,  ,#        
             '#######'   ##     ##  '#######'  #'      '#     '####' # '####'        



                #########################################################
                #                        -***-                          #
                #          Department of theory and spectroscopy        #
                #                                                       #
                #                      Frank Neese                      #
                #                                                       #
                #     Directorship, Architecture, Infrastructure        #
                #                    SHARK, DRIVERS                     #
                #        Core code/Algorithms in most modules           #
                #                                                       #
                #        Max Planck Institute fuer Kohlenforschung      #
                #                Kaiser Wilhelm Platz 1                 #
                #                 D-45470 Muelheim/Ruhr                 #
                #                      Germany                          #
                #                                                       #
                #                  All rights reserved                  #
                #                        -***-                          #
                #########################################################


                         Program Version 6.0.0  -   RELEASE  -


 With contributions from (in alphabetic order):
   Daniel Aravena         : Magnetic Suceptibility
   Michael Atanasov       : Ab Initio Ligand Field Theory (pilot matlab implementation)
   Alexander A. Auer      : GIAO ZORA, VPT2 properties, NMR spectrum
   Ute Becker             : All parallelization in ORCA, NUMFREQ, NUMCALC
   Giovanni Bistoni       : ED, misc. LED, open-shell LED, HFLD
   Martin Brehm           : Molecular dynamics
   Dmytro Bykov           : pre 5.0 version of the SCF Hessian
   Marcos Casanova-Páez   : Triplet and SCS-CIS(D). UHF-(DLPNO)-IP/EA/STEOM-CCSD. UHF-CVS-IP/STEOM-CCSD
   Vijay G. Chilkuri      : MRCI spin determinant printing, contributions to CSF-ICE
   Pauline Colinet        : FMM embedding
   Dipayan Datta          : RHF DLPNO-CCSD density
   Achintya Kumar Dutta   : EOM-CC, STEOM-CC
   Nicolas Foglia         : Exact transition moments, OPA infrastructure, MCD improvements
   Dmitry Ganyushin       : Spin-Orbit,Spin-Spin,Magnetic field MRCI
   Miquel Garcia          : C-PCM and meta-GGA Hessian, CCSD/C-PCM, Gaussian charge scheme
   Tiago L. C. Gouveia    : GS-ROHF, GS-ROCIS
   Yang Guo               : DLPNO-NEVPT2, F12-NEVPT2, CIM, IAO-localization
   Andreas Hansen         : Spin unrestricted coupled pair/coupled cluster methods
   Ingolf Harden          : AUTO-CI MPn and infrastructure 
   Benjamin Helmich-Paris : MC-RPA, TRAH-(SCF,CASSCF), AVAS, COSX integrals, SCF dyn. polar.
   Lee Huntington         : MR-EOM, pCC
   Robert Izsak           : Overlap fitted RIJCOSX, COSX-SCS-MP3, EOM
   Riya Kayal             : Wick's Theorem for AUTO-CI, AUTO-CI UHF-CCSDT
   Emily Kempfer          : AUTO-CI, RHF CISDT and CCSDT
   Christian Kollmar      : KDIIS, OOCD, Brueckner-CCSD(T), CCSD density, CASPT2, CASPT2-K, improved NEVPT2
   Axel Koslowski         : Symmetry handling
   Simone Kossmann        : Meta GGA functionals, TD-DFT gradient, OOMP2, (MP2 Hessian; deprecated post 5.0)
   Lucas Lang             : DCDCAS
   Marvin Lechner         : AUTO-CI (C++ implementation), FIC-MRCC
   Spencer Leger          : CASSCF response
   Dagmar Lenk            : GEPOL surface, SMD, ORCA-2-JSON
   Dimitrios Liakos       : Extrapolation schemes; Compound Job, initial MDCI parallelization
   Dimitrios Manganas     : Further ROCIS development; embedding schemes. LFT, Crystal Embedding
   Dimitrios Pantazis     : SARC Basis sets
   Anastasios Papadopoulos: AUTO-CI, single reference methods and gradients
   Taras Petrenko         : pre 6.0 DFT Hessian and TD-DFT gradient, (ASA, deprecated), ECA, 1-Electron XAS/XES, NRVS
   Peter Pinski           : DLPNO-MP2, DLPNO-MP2 Gradient
   Christoph Reimann      : Effective Core Potentials
   Marius Retegan         : Local ZFS, SOC
   Christoph Riplinger    : Optimizer, TS searches, QM/MM, DLPNO-CCSD(T), (RO)-DLPNO pert. Triples
   Michael Roemelt        : Original ROCIS implementation
   Masaaki Saitow         : Open-shell DLPNO-CCSD energy and density
   Barbara Sandhoefer     : DKH picture change effects
   Kantharuban Sivalingam : CASSCF convergence/infrastructure, NEVPT2 and variants, FIC-MRCI
   Bernardo de Souza      : ESD, SOC TD-DFT
   Georgi Stoychev        : AutoAux, RI-MP2 NMR, DLPNO-MP2 response, X2C
   Van Anh Tran           : RI-MP2 g-tensors
   Willem Van den Heuvel  : Paramagnetic NMR
   Zikuan Wang            : NOTCH, Electric field optimization 
   Frank Wennmohs         : Technical directorship and infrastructure
   Hang Xu                : AUTO-CI-Response properties 


 We gratefully acknowledge several colleagues who have allowed us to
 interface, adapt or use parts of their codes:
   Stefan Grimme, W. Hujo, H. Kruse, P. Pracht,  : VdW corrections, initial TS optimization,
                  C. Bannwarth, S. Ehlert,         DFT functionals, gCP, sTDA/sTD-DF
                  L. Wittmann, M. Mueller
   Ed Valeev, F. Pavosevic, A. Kumar             : LibInt (2-el integral package), F12 methods
   Garnet Chan, S. Sharma, J. Yang, R. Olivares  : DMRG
   Ulf Ekstrom                                   : XCFun DFT Library
   Mihaly Kallay                                 : mrcc  (arbitrary order and MRCC methods)
   Frank Weinhold                                : gennbo (NPA and NBO analysis)
   Simon Mueller                                 : openCOSMO-RS
   Christopher J. Cramer and Donald G. Truhlar   : smd solvation model
   Lars Goerigk                                  : TD-DFT with DH, B97 family of functionals
   V. Asgeirsson, H. Jonsson                     : NEB implementation
   FAccTs GmbH                                   : IRC, NEB, NEB-TS, DLPNO-Multilevel, CI-OPT
                                                   MM, QMMM, 2- and 3-layer-ONIOM, Crystal-QMMM,
                                                   LR-CPCM, SF, NACMEs, symmetry and pop. for TD-DFT,
                                                   nearIR, NL-DFT gradient (VV10), updates on ESD,
                                                   ML-optimized integration grids, MBIS, APM,
                                                   GOAT, DOCKER, SOLVATOR, interface openCOSMO-RS
   S Lehtola, MJT Oliveira, MAL Marques          : LibXC Library
   Liviu Ungur et al                             : ANISO software


 Your calculation uses the libint2 library for the computation of 2-el integrals
 For citations please refer to: http://libint.valeyev.net

 Your ORCA version has been built with support for libXC version: 6.2.2
 For citations please refer to: https://libxc.gitlab.io

 This ORCA versions uses:
   CBLAS   interface :  Fast vector & matrix operations
   LAPACKE interface :  Fast linear algebra routines
   SCALAPACK package :  Parallel linear algebra routines
   Shared memory     :  Shared parallel matrices
   BLAS/LAPACK       :  OpenBLAS 0.3.27  USE64BITINT DYNAMIC_ARCH NO_AFFINITY Sandybridge SINGLE_THREADED
        Core in use  :  Sandybridge
   Copyright (c) 2011-2014, The OpenBLAS Project


NOTE: MaxCore=3500 MB was set to SCF,MP2,MDCI,CIPSI,MRCI and CIS
      => If you want to overwrite this, your respective input block should be placed after the MaxCore statement
Your calculation utilizes the atom-pairwise dispersion correction
with the Becke-Johnson damping scheme (D3BJ)


Warning: RI is on but no J-basis has been assigned. Assigning Def2/J (nothing to worry about!)
================================================================================

----- Orbital basis set information -----
Your calculation utilizes the basis: def2-TZVP
   F. Weigend and R. Ahlrichs, Phys. Chem. Chem. Phys. 7, 3297 (2005).

----- AuxJ basis set information -----
Your calculation utilizes the auxiliary basis: def2/J
   F. Weigend, Phys. Chem. Chem. Phys. 8, 1057 (2006).

================================================================================
                                        WARNINGS
                       Please study these warnings very carefully!
================================================================================


================================================================================
                                       INPUT FILE
================================================================================
NAME = CS_PdOAc_006_sp_01.inp
|  1> !TPSSh def2-TZVP d3 TightSCF SlowConv RIJCOSX defgrid2
|  2> 
|  3> %pal
|  4> nprocs 4
|  5> end
|  6> 
|  7> %scf
|  8> MaxIter 1500
|  9> end
| 10> 
| 11> %maxcore 3500
| 12> 
| 13>  
| 14> 
| 15> * xyz 0 1
| 16>   O          -0.29337834737891      0.03471851820976      0.24047516870125
| 17>   C           0.75293780261439     -0.78317840469775      0.45109594493049
| 18>   O           1.77714897841705     -0.69028719883864     -0.16966802191010
| 19>   C           0.46156459990035     -1.78385145482332      1.53073595076212
| 20>   H           0.21871271639251     -1.26155552193283      2.47129267410843
| 21>   H          -0.42021473257458     -2.38701473417976      1.25651203332911
| 22>   H           1.33389312976003     -2.43525782944194      1.67527504778182
| 23>   H          -0.02691464813084      0.65299033170450     -0.46543474370312
| 24> *
| 25> 
| 26>                          ****END OF INPUT****
================================================================================

                       ****************************
                       * Single Point Calculation *
                       ****************************

---------------------------------
CARTESIAN COORDINATES (ANGSTROEM)
---------------------------------
  O     -0.293378    0.034719    0.240475
  C      0.752938   -0.783178    0.451096
  O      1.777149   -0.690287   -0.169668
  C      0.461565   -1.783851    1.530736
  H      0.218713   -1.261556    2.471293
  H     -0.420215   -2.387015    1.256512
  H      1.333893   -2.435258    1.675275
  H     -0.026915    0.652990   -0.465435

----------------------------
CARTESIAN COORDINATES (A.U.)
----------------------------
  NO LB      ZA    FRAG     MASS         X           Y           Z
   0 O     8.0000    0    15.999   -0.554405    0.065608    0.454432
   1 C     6.0000    0    12.011    1.422846   -1.479993    0.852448
   2 O     8.0000    0    15.999    3.358325   -1.304454   -0.320626
   3 C     6.0000    0    12.011    0.872231   -3.370991    2.892672
   4 H     1.0000    0     1.008    0.413307   -2.383994    4.670066
   5 H     1.0000    0     1.008   -0.794091   -4.510804    2.374464
   6 H     1.0000    0     1.008    2.520693   -4.601970    3.165811
   7 H     1.0000    0     1.008   -0.050861    1.233973   -0.879544

--------------------------------
INTERNAL COORDINATES (ANGSTROEM)
--------------------------------
 O      0   0   0     0.000000000000     0.00000000     0.00000000
 C      1   0   0     1.344653848995     0.00000000     0.00000000
 O      2   1   0     1.201243194067   122.37605132     0.00000000
 C      2   1   3     1.500622350460   111.54398085   179.96105844
 H      4   2   1     1.102912974205   109.90841528   301.03240716
 H      4   2   1     1.102968489866   109.93893574    58.74840532
 H      4   2   1     1.098261753622   109.63218722   179.89342106
 H      1   2   3     0.975485388312   106.63747128   359.77187208

---------------------------
INTERNAL COORDINATES (A.U.)
---------------------------
 O      0   0   0     0.000000000000     0.00000000     0.00000000
 C      1   0   0     2.541027519524     0.00000000     0.00000000
 O      2   1   0     2.270020657024   122.37605132     0.00000000
 C      2   1   3     2.835765272810   111.54398085   179.96105844
 H      4   2   1     2.084203470796   109.90841528   301.03240716
 H      4   2   1     2.084308380191   109.93893574    58.74840532
 H      4   2   1     2.075413937705   109.63218722   179.89342106
 H      1   2   3     1.843400231551   106.63747128   359.77187208

---------------------
BASIS SET INFORMATION
---------------------
There are 3 groups of distinct atoms

 Group   1 Type O   : 11s6p2d1f contracted to 5s3p2d1f pattern {62111/411/11/1}
 Group   2 Type C   : 11s6p2d1f contracted to 5s3p2d1f pattern {62111/411/11/1}
 Group   3 Type H   : 5s1p contracted to 3s1p pattern {311/1}

Atom   0O    basis set group =>   1
Atom   1C    basis set group =>   2
Atom   2O    basis set group =>   1
Atom   3C    basis set group =>   2
Atom   4H    basis set group =>   3
Atom   5H    basis set group =>   3
Atom   6H    basis set group =>   3
Atom   7H    basis set group =>   3
---------------------------------
AUXILIARY/J BASIS SET INFORMATION
---------------------------------
There are 3 groups of distinct atoms

 Group   1 Type O   : 12s5p4d2f1g contracted to 6s4p3d1f1g pattern {711111/2111/211/2/1}
 Group   2 Type C   : 12s5p4d2f1g contracted to 6s4p3d1f1g pattern {711111/2111/211/2/1}
 Group   3 Type H   : 5s2p1d contracted to 3s1p1d pattern {311/2/1}

Atom   0O    basis set group =>   1
Atom   1C    basis set group =>   2
Atom   2O    basis set group =>   1
Atom   3C    basis set group =>   2
Atom   4H    basis set group =>   3
Atom   5H    basis set group =>   3
Atom   6H    basis set group =>   3
Atom   7H    basis set group =>   3


           ************************************************************
           *        Program running with 4 parallel MPI-processes     *
           *              working on a common directory               *
           ************************************************************
------------------------------------------------------------------------------
                             ORCA STARTUP CALCULATIONS
                           -- RI-GTO INTEGRALS CHOSEN --
------------------------------------------------------------------------------
------------------------------------------------------------------------------
                   ___                                                        
                  /   \      - P O W E R E D   B Y -                         
                 /     \                                                     
                 |  |  |   _    _      __       _____    __    __             
                 |  |  |  | |  | |    /  \     |  _  \  |  |  /  |          
                  \  \/   | |  | |   /    \    | | | |  |  | /  /          
                 / \  \   | |__| |  /  /\  \   | |_| |  |  |/  /          
                |  |  |   |  __  | /  /__\  \  |    /   |      \           
                |  |  |   | |  | | |   __   |  |    \   |  |\   \          
                \     /   | |  | | |  |  |  |  | |\  \  |  | \   \       
                 \___/    |_|  |_| |__|  |__|  |_| \__\ |__|  \__/        
                                                                              
                      - O R C A' S   B I G   F R I E N D -                    
                                      &                                       
                       - I N T E G R A L  F E E D E R -                       
                                                                              
 v1 FN, 2020, v2 2021, v3 2022-2024                                           
------------------------------------------------------------------------------


----------------------
SHARK INTEGRAL PACKAGE
----------------------

Number of atoms                             ...      8
Number of basis functions                   ...    148
Number of shells                            ...     60
Maximum angular momentum                    ...      3
Integral batch strategy                     ... SHARK/LIBINT Hybrid
RI-J (if used) integral strategy            ... SPLIT-RIJ (Revised 2003 algorithm where possible)
Printlevel                                  ...      1
Contraction scheme used                     ... SEGMENTED contraction
Prescreening option                         ... SCHWARTZ
   Thresh                                   ... 2.500e-11
   Tcut                                     ... 2.500e-12
   Tpresel                                  ... 2.500e-12 
Coulomb Range Separation                    ... NOT USED
Exchange Range Separation                   ... NOT USED
Multipole approximations                    ... NOT USED
Finite Nucleus Model                        ... NOT USED
CABS basis                                  ... NOT available
Auxiliary Coulomb fitting basis             ... AVAILABLE
   # of basis functions in Aux-J            ...    240
   # of shells in Aux-J                     ...     80
   Maximum angular momentum in Aux-J        ...      4
Auxiliary J/K fitting basis                 ... NOT available
Auxiliary Correlation fitting basis         ... NOT available
Auxiliary 'external' fitting basis          ... NOT available

Checking pre-screening integrals            ... done (  0.0 sec) Dimension = 60
Check shell pair data                       ... done (  0.0 sec)
Shell pair information
Shell pair cut-off parameter TPreSel        ...   2.5e-12
Total number of shell pairs                 ...      1830
Shell pairs after pre-screening             ...      1796
Total number of primitive shell pairs       ...      5560
Primitive shell pairs kept                  ...      4467
          la=0 lb=0:    501 shell pairs
          la=1 lb=0:    510 shell pairs
          la=1 lb=1:    136 shell pairs
          la=2 lb=0:    251 shell pairs
          la=2 lb=1:    128 shell pairs
          la=2 lb=2:     36 shell pairs
          la=3 lb=0:    128 shell pairs
          la=3 lb=1:     64 shell pairs
          la=3 lb=2:     32 shell pairs
          la=3 lb=3:     10 shell pairs

Calculating one electron integrals          ... done (  0.0 sec)
Calculating RI/J V-Matrix + Cholesky decomp.... done (  0.0 sec)
Calculating Nuclear repulsion               ... done (  0.0 sec) ENN=    121.399630613160 Eh

Diagonalization of the overlap matrix:
Smallest eigenvalue                        ... 4.296e-04
Time for diagonalization                   ...    0.004 sec
Threshold for overlap eigenvalues          ... 1.000e-07
Number of eigenvalues below threshold      ... 0
Time for construction of square roots      ...    0.018 sec
Total time needed                          ...    0.064 sec

-------------------
DFT GRID GENERATION
-------------------

General Integration Accuracy     IntAcc      ... 4.388
Radial Grid Type                 RadialGrid  ... OptM3 with GC (2021)
Angular Grid (max. ang.)         AngularGrid ... 4 (Lebedev-302)
Angular grid pruning method      GridPruning ... 4 (adaptive)
Weight generation scheme         WeightScheme... mBecke (2022)
Basis function cutoff            BFCut       ... 1.0000e-11
Integration weight cutoff        WCut        ... 1.0000e-14
Partially contracted basis set               ... off
Rotationally invariant grid construction     ... off
Angular grids for H and He will be reduced by one unit

Total number of grid points                  ...    37426
Total number of batches                      ...      589
Average number of points per batch           ...       63
Average number of grid points per atom       ...     4678

--------------------
COSX GRID GENERATION
--------------------

GRIDX 1
-------
General Integration Accuracy     IntAcc      ... 3.816
Radial Grid Type                 RadialGrid  ... OptM3 with GC (2021)
Angular Grid (max. ang.)         AngularGrid ... 1 (Lebedev-50)
Angular grid pruning method      GridPruning ... 4 (adaptive)
Weight generation scheme         WeightScheme... mBecke (2022)
Basis function cutoff            BFCut       ... 1.0000e-11
Integration weight cutoff        WCut        ... 1.0000e-14
Partially contracted basis set               ... on
Rotationally invariant grid construction     ... off
Angular grids for H and He will be reduced by one unit

Total number of grid points                  ...     4800
Total number of batches                      ...       42
Average number of points per batch           ...      114
Average number of grid points per atom       ...      600
UseSFitting                                  ... on

GRIDX 2
-------
General Integration Accuracy     IntAcc      ... 4.020
Radial Grid Type                 RadialGrid  ... OptM3 with GC (2021)
Angular Grid (max. ang.)         AngularGrid ... 2 (Lebedev-110)
Angular grid pruning method      GridPruning ... 4 (adaptive)
Weight generation scheme         WeightScheme... mBecke (2022)
Basis function cutoff            BFCut       ... 1.0000e-11
Integration weight cutoff        WCut        ... 1.0000e-14
Partially contracted basis set               ... on
Rotationally invariant grid construction     ... off
Angular grids for H and He will be reduced by one unit

Total number of grid points                  ...    10569
Total number of batches                      ...       87
Average number of points per batch           ...      121
Average number of grid points per atom       ...     1321
UseSFitting                                  ... on

GRIDX 3
-------
General Integration Accuracy     IntAcc      ... 4.338
Radial Grid Type                 RadialGrid  ... OptM3 with GC (2021)
Angular Grid (max. ang.)         AngularGrid ... 3 (Lebedev-194)
Angular grid pruning method      GridPruning ... 4 (adaptive)
Weight generation scheme         WeightScheme... mBecke (2022)
Basis function cutoff            BFCut       ... 1.0000e-11
Integration weight cutoff        WCut        ... 1.0000e-14
Partially contracted basis set               ... on
Rotationally invariant grid construction     ... off
Angular grids for H and He will be reduced by one unit

Total number of grid points                  ...    23344
Total number of batches                      ...      186
Average number of points per batch           ...      125
Average number of grid points per atom       ...     2918
UseSFitting                                  ... on
Initializing property integral containers    ... done (  0.1 sec)

SHARK setup successfully completed in   1.7 seconds

Maximum memory used throughout the entire STARTUP-calculation: 13.9 MB


           ************************************************************
           *        Program running with 4 parallel MPI-processes     *
           *              working on a common directory               *
           ************************************************************
-------------------------------------------------------------------------------
                                 ORCA GUESS
                   Start orbitals & Density for SCF / CASSCF
-------------------------------------------------------------------------------

------------
SCF SETTINGS
------------
Hamiltonian:
 Density Functional     Method          .... DFT(GTOs)
 Exchange Functional    Exchange        .... TPSS
 Correlation Functional Correlation     .... TPSS
 LDA part of GGA corr.  LDAOpt          .... PW91-LDA
 Gradients option       PostSCFGGA      .... off
 Hybrid DFT is turned on
   Fraction HF Exchange ScalHFX         ....  0.100000
   Scaling of DF-GGA-X  ScalDFX         ....  0.900000
   Scaling of DF-GGA-C  ScalDFC         ....  1.000000
   Scaling of DF-LDA-C  ScalLDAC        ....  1.000000
   Perturbative correction              ....  0.000000
   NL short-range parameter             ....  5.200000
 RI-approximation to the Coulomb term is turned on
   Number of AuxJ basis functions       .... 240
   RIJ-COSX (HFX calculated with COS-X)).... on


General Settings:
 Integral files         IntName         .... CS_PdOAc_006_sp_01
 Hartree-Fock type      HFTyp           .... RHF
 Total Charge           Charge          ....    0
 Multiplicity           Mult            ....    1
 Number of Electrons    NEL             ....   32
 Basis Dimension        Dim             ....  148
 Nuclear Repulsion      ENuc            ....    121.3996306132 Eh

Convergence Acceleration:
 AO-DIIS                CNVDIIS         .... on
   Start iteration      DIISMaxIt       ....     0
   Startup error        DIISStart       ....  0.200000
   # of expansion vecs  DIISMaxEq       ....     5
   Bias factor          DIISBfac        ....   1.050
   Max. coefficient     DIISMaxC        ....  10.000
 MO-DIIS                CNVKDIIS        .... off
 Trust-Rad. Augm. Hess. CNVTRAH         .... auto
   Auto Start mean grad. ratio tolernc. ....  1.125000
   Auto Start start iteration           ....    50
   Auto Start num. interpolation iter.  ....    10
   Max. Number of Micro iterations      ....    24
   Max. Number of Macro iterations      .... Maxiter - #DIIS iter
   Number of Davidson start vectors     ....     2
   Converg. threshold    (grad. norm)   ....   1.000e-05
   Grad. Scal. Fac. for Micro threshold ....   0.100
   Minimum threshold for Micro iter.    ....   1.000e-02
   NR start threshold (gradient norm)   ....   1.000e-04
   Initial trust radius                 ....   0.400
   Minimum AH scaling param. (alpha)    ....   1.000
   Maximum AH scaling param. (alpha)    .... 1000.000
   Quad. conv. algorithm                .... NR
   White noise on init. David. guess    .... on
   Maximum white noise                  ....   0.010
   Pseudo random numbers                .... off
   Inactive MOs                         .... canonical
   Orbital update algorithm             .... Taylor
   Preconditioner                       .... Diag
   Full preconditioner red. dimension   ....   250
 SOSCF                  CNVSOSCF        .... on
   Start iteration      SOSCFMaxIt      ....   150
   Startup grad/error   SOSCFStart      ....  0.001000
   Hessian update       SOSCFHessUp     .... L-BFGS
 Level Shifting         CNVShift        .... on
   Level shift para.    LevelShift      ....    0.2500
   Turn off err/grad.   ShiftErr        ....    0.0000
 Zerner damping         CNVZerner       .... off
 Static damping         CNVDamp         .... on
   Fraction old density DampFac         ....    0.8500
   Max. Damping (<1)    DampMax         ....    0.9800
   Min. Damping (>=0)   DampMin         ....    0.0000
   Turn off err/grad.   DampErr         ....    0.0300

SCF Procedure:
 Maximum # iterations   MaxIter         ....  1500
 SCF integral mode      SCFMode         .... Direct
   Integral package                     .... SHARK and LIBINT hybrid scheme
 Reset frequency        DirectResetFreq ....    20
 Integral Threshold     Thresh          ....  2.500e-11 Eh
 Primitive CutOff       TCut            ....  2.500e-12 Eh

Convergence Tolerance:
 Convergence Check Mode ConvCheckMode   .... Total+1el-Energy
 Convergence forced     ConvForced      .... 0
 Energy Change          TolE            ....  1.000e-08 Eh
 1-El. energy change                    ....  1.000e-05 Eh
 Orbital Gradient       TolG            ....  1.000e-05
 Orbital Rotation angle TolX            ....  1.000e-05
 DIIS Error             TolErr          ....  5.000e-07

------------------------------
INITIAL GUESS: MODEL POTENTIAL
------------------------------
Loading Hartree-Fock densities                     ... done
Calculating cut-offs                               ... done
Initializing the effective Hamiltonian             ... done
Setting up the integral package (SHARK)            ... done
Starting the Coulomb interaction                   ... done (   0.1 sec)
Making the grid                                    ... done (   0.2 sec)
Mapping shells                                     ... done
Starting the XC term evaluation                    ... done (   0.0 sec)
  promolecular density results
     # of electrons  =     31.999586836
     EX              =    -27.702549590
     EC              =     -1.056124571
     EX+EC           =    -28.758674161
Transforming the Hamiltonian                       ... done (   0.0 sec)
Diagonalizing the Hamiltonian                      ... done (   0.0 sec)
Back transforming the eigenvectors                 ... done (   0.0 sec)
Now organizing SCF variables                       ... done
                      ------------------
                      INITIAL GUESS DONE (   0.6 sec)
                      ------------------
             **** ENERGY FILE WAS UPDATED (CS_PdOAc_006_sp_01.en.tmp) ****
Finished Guess after   1.7 sec
Maximum memory used throughout the entire GUESS-calculation: 9.7 MB


           ************************************************************
           *        Program running with 4 parallel MPI-processes     *
           *              working on a common directory               *
           ************************************************************

-------------------------------------------------------------------------------------------
                                      ORCA LEAN-SCF
                              memory conserving SCF solver
-------------------------------------------------------------------------------------------

----------------------------------------D-I-I-S--------------------------------------------
Iteration    Energy (Eh)           Delta-E    RMSDP     MaxDP     DIISErr   Damp  Time(sec)
-------------------------------------------------------------------------------------------
               ***  Starting incremental Fock matrix formation  ***
    1    -229.0206924082756359     0.00e+00  1.30e-03  3.22e-02  2.73e-01  0.850   2.0
    2    -229.0705973405592317    -4.99e-02  1.43e-03  4.77e-02  1.85e-01  0.850   4.1
                               ***Turning on AO-DIIS***
    3    -229.0995525064856224    -2.90e-02  6.69e-04  1.64e-02  1.09e-01  0.850   2.2
    4    -229.1170044324144897    -1.75e-02  3.54e-04  7.68e-03  8.46e-02  0.850   2.0
    5    -229.1292833527538733    -1.23e-02  2.32e-04  4.26e-03  7.21e-02  0.850   2.1
    6    -229.1389005204075033    -9.62e-03  1.83e-04  3.33e-03  6.21e-02  0.850   2.0
    7    -229.1468080502924067    -7.91e-03  1.58e-04  3.24e-03  5.20e-02  0.850   2.0
    8    -229.1533751872611901    -6.57e-03  1.31e-04  2.35e-03  4.20e-02  0.850   2.0
    9    -229.1587711215511263    -5.40e-03  1.09e-04  1.84e-03  3.48e-02  0.850   2.0
   10    -229.1632284606271810    -4.46e-03  9.13e-05  1.54e-03  2.96e-02  0.850   2.2
   11    -229.1669392413543278    -3.71e-03  5.15e-04  9.13e-03  2.51e-02  0.000   2.2
   12    -229.1867672251527210    -1.98e-02  4.69e-05  1.31e-03  2.96e-03  0.000   3.7
   13    -229.1867817468119597    -1.45e-05  1.59e-05  3.52e-04  1.03e-03  0.000   1.9
                              *** Initializing SOSCF ***
---------------------------------------S-O-S-C-F--------------------------------------
Iteration    Energy (Eh)           Delta-E    RMSDP     MaxDP     MaxGrad    Time(sec)
--------------------------------------------------------------------------------------
   14    -229.1867831904327204    -1.44e-06  4.90e-06  1.47e-04  2.53e-04     3.1
               *** Restarting incremental Fock matrix formation ***
   15    -229.1867835696327234    -3.79e-07  3.94e-06  1.07e-04  1.96e-05     2.1
   16    -229.1867835561439506     1.35e-08  1.39e-06  2.97e-05  5.69e-05     1.8
   17    -229.1867835771672617    -2.10e-08  5.34e-07  1.17e-05  5.39e-06     1.7
   18    -229.1867835774566515    -2.89e-10  3.24e-07  6.74e-06  1.10e-05     3.5
                 **** Energy Check signals convergence ****

               *****************************************************
               *                     SUCCESS                       *
               *           SCF CONVERGED AFTER  18 CYCLES          *
               *****************************************************

Recomputing exchange energy using gridx3       ... done (    1.133 sec)
Old exchange energy                            :     -2.825315454 Eh
New exchange energy                            :     -2.825321803 Eh
Exchange energy change after final integration :     -0.000006350 Eh
Total energy after final integration           :   -229.186789927 Eh
             **** ENERGY FILE WAS UPDATED (CS_PdOAc_006_sp_01.en.tmp) ****

----------------
TOTAL SCF ENERGY
----------------

Total Energy       :       -229.18678992698568 Eh           -6236.48961 eV

Components:
Nuclear Repulsion  :        121.39963061316001 Eh            3303.45189 eV
Electronic Energy  :       -350.58641419061667 Eh           -9539.94133 eV
One Electron Energy:       -552.71708976831621 Eh          -15040.19664 eV
Two Electron Energy:        202.13067557769958 Eh            5500.25531 eV

Virial components:
Potential Energy   :       -457.45941142680590 Eh          -12448.10343 eV
Kinetic Energy     :        228.27262149982019 Eh            6211.61382 eV
Virial Ratio       :          2.00400472216580

DFT components:
N(Alpha)           :       16.000008866095 electrons
N(Beta)            :       16.000008866095 electrons
N(Total)           :       32.000017732191 electrons
E(X)               :      -25.663084650771 Eh       
E(C)               :       -1.070353337419 Eh       
E(XC)              :      -26.733437988189 Eh       

---------------
SCF CONVERGENCE
---------------

  Last Energy change         ...    2.8939e-10  Tolerance :   1.0000e-08
  Last MAX-Density change    ...    6.7442e-06  Tolerance :   1.0000e-07
  Last RMS-Density change    ...    3.2417e-07  Tolerance :   5.0000e-09
  Last DIIS Error            ...    2.5309e-04  Tolerance :   5.0000e-07
  Last Orbital Gradient      ...    1.0989e-05  Tolerance :   1.0000e-05
  Last Orbital Rotation      ...    8.4462e-06  Tolerance :   1.0000e-05


----------------
ORBITAL ENERGIES
----------------

  NO   OCC          E(Eh)            E(eV) 
   0   2.0000     -19.102852      -519.8150 
   1   2.0000     -19.041757      -518.1525 
   2   2.0000     -10.242076      -278.7011 
   3   2.0000     -10.131321      -275.6873 
   4   2.0000      -1.090085       -29.6627 
   5   2.0000      -0.997990       -27.1567 
   6   2.0000      -0.742431       -20.2026 
   7   2.0000      -0.596022       -16.2186 
   8   2.0000      -0.475237       -12.9318 
   9   2.0000      -0.463308       -12.6072 
  10   2.0000      -0.456833       -12.4311 
  11   2.0000      -0.398110       -10.8331 
  12   2.0000      -0.380116       -10.3435 
  13   2.0000      -0.379410       -10.3243 
  14   2.0000      -0.310822        -8.4579 
  15   2.0000      -0.263866        -7.1801 
  16   0.0000      -0.011165        -0.3038 
  17   0.0000       0.027279         0.7423 
  18   0.0000       0.057293         1.5590 
  19   0.0000       0.106400         2.8953 
  20   0.0000       0.115092         3.1318 
  21   0.0000       0.136618         3.7176 
  22   0.0000       0.163380         4.4458 
  23   0.0000       0.199210         5.4208 
  24   0.0000       0.210878         5.7383 
  25   0.0000       0.232721         6.3327 
  26   0.0000       0.248810         6.7705 
*Only the first 10 virtual orbitals were printed.

                    ********************************
                    * MULLIKEN POPULATION ANALYSIS *
                    ********************************

-----------------------
MULLIKEN ATOMIC CHARGES
-----------------------
   0 O :   -0.363075
   1 C :    0.263603
   2 O :   -0.306999
   3 C :   -0.332321
   4 H :    0.136270
   5 H :    0.136291
   6 H :    0.142287
   7 H :    0.323943
Sum of atomic charges:    0.0000000

--------------------------------
MULLIKEN REDUCED ORBITAL CHARGES
--------------------------------
  0 O s       :     3.769981  s :     3.769981
      pz      :     1.555191  p :     4.560552
      px      :     1.559460
      py      :     1.445901
      dz2     :     0.003866  d :     0.030776
      dxz     :     0.005806
      dyz     :     0.006207
      dx2y2   :     0.006244
      dxy     :     0.008653
      f0      :     0.000142  f :     0.001766
      f+1     :     0.000144
      f-1     :     0.000406
      f+2     :     0.000191
      f-2     :     0.000345
      f+3     :     0.000276
      f-3     :     0.000262

  1 C s       :     3.090109  s :     3.090109
      pz      :     0.827746  p :     2.344621
      px      :     0.723932
      py      :     0.792944
      dz2     :     0.052937  d :     0.276755
      dxz     :     0.051995
      dyz     :     0.038626
      dx2y2   :     0.062481
      dxy     :     0.070716
      f0      :     0.002387  f :     0.024912
      f+1     :     0.004878
      f-1     :     0.001234
      f+2     :     0.002474
      f-2     :     0.005250
      f+3     :     0.004508
      f-3     :     0.004181

  2 O s       :     3.809647  s :     3.809647
      pz      :     1.462921  p :     4.465480
      px      :     1.393720
      py      :     1.608839
      dz2     :     0.005979  d :     0.029917
      dxz     :     0.008298
      dyz     :     0.002309
      dx2y2   :     0.006132
      dxy     :     0.007199
      f0      :     0.000129  f :     0.001955
      f+1     :     0.000569
      f-1     :     0.000008
      f+2     :     0.000341
      f-2     :     0.000287
      f+3     :     0.000258
      f-3     :     0.000363

  3 C s       :     3.195233  s :     3.195233
      pz      :     1.000777  p :     3.080459
      px      :     1.071677
      py      :     1.008005
      dz2     :     0.013269  d :     0.052172
      dxz     :     0.007145
      dyz     :     0.011839
      dx2y2   :     0.004813
      dxy     :     0.015105
      f0      :     0.000422  f :     0.004457
      f+1     :     0.000424
      f-1     :     0.001152
      f+2     :     0.000537
      f-2     :     0.000812
      f+3     :     0.000203
      f-3     :     0.000907

  4 H s       :     0.843900  s :     0.843900
      pz      :     0.009674  p :     0.019831
      px      :     0.004706
      py      :     0.005450

  5 H s       :     0.843884  s :     0.843884
      pz      :     0.004611  p :     0.019825
      px      :     0.008670
      py      :     0.006544

  6 H s       :     0.838039  s :     0.838039
      pz      :     0.004187  p :     0.019674
      px      :     0.008650
      py      :     0.006837

  7 H s       :     0.633958  s :     0.633958
      pz      :     0.016438  p :     0.042099
      px      :     0.010857
      py      :     0.014804



                     *******************************
                     * LOEWDIN POPULATION ANALYSIS *
                     *******************************

----------------------
LOEWDIN ATOMIC CHARGES
----------------------
   0 O :    0.098191
   1 C :   -0.553036
   2 O :    0.102985
   3 C :   -0.260806
   4 H :    0.139388
   5 H :    0.139356
   6 H :    0.135851
   7 H :    0.198071

-------------------------------
LOEWDIN REDUCED ORBITAL CHARGES
-------------------------------
  0 O s       :     3.342151  s :     3.342151
      pz      :     1.489508  p :     4.483942
      px      :     1.578014
      py      :     1.416420
      dz2     :     0.008490  d :     0.070604
      dxz     :     0.009587
      dyz     :     0.017098
      dx2y2   :     0.015438
      dxy     :     0.019991
      f0      :     0.000422  f :     0.005112
      f+1     :     0.000633
      f-1     :     0.000625
      f+2     :     0.000323
      f-2     :     0.001080
      f+3     :     0.001082
      f-3     :     0.000948

  1 C s       :     2.768268  s :     2.768268
      pz      :     0.893772  p :     2.672532
      px      :     0.919381
      py      :     0.859378
      dz2     :     0.165244  d :     0.956639
      dxz     :     0.203020
      dyz     :     0.119104
      dx2y2   :     0.216340
      dxy     :     0.252931
      f0      :     0.015199  f :     0.155598
      f+1     :     0.030640
      f-1     :     0.007428
      f+2     :     0.014718
      f-2     :     0.030954
      f+3     :     0.027874
      f-3     :     0.028785

  2 O s       :     3.405289  s :     3.405289
      pz      :     1.436502  p :     4.417128
      px      :     1.490102
      py      :     1.490524
      dz2     :     0.009786  d :     0.068270
      dxz     :     0.023055
      dyz     :     0.004864
      dx2y2   :     0.017143
      dxy     :     0.013422
      f0      :     0.000576  f :     0.006328
      f+1     :     0.001367
      f-1     :     0.000025
      f+2     :     0.001557
      f-2     :     0.000835
      f+3     :     0.001033
      f-3     :     0.000935

  3 C s       :     2.840920  s :     2.840920
      pz      :     1.048904  p :     3.169744
      px      :     1.069254
      py      :     1.051586
      dz2     :     0.054480  d :     0.225862
      dxz     :     0.026676
      dyz     :     0.059225
      dx2y2   :     0.019613
      dxy     :     0.065869
      f0      :     0.002579  f :     0.024280
      f+1     :     0.003260
      f-1     :     0.005114
      f+2     :     0.004807
      f-2     :     0.003350
      f+3     :     0.001359
      f-3     :     0.003812

  4 H s       :     0.800781  s :     0.800781
      pz      :     0.028337  p :     0.059831
      px      :     0.013858
      py      :     0.017637

  5 H s       :     0.800821  s :     0.800821
      pz      :     0.013943  p :     0.059823
      px      :     0.027225
      py      :     0.018655

  6 H s       :     0.804605  s :     0.804605
      pz      :     0.011908  p :     0.059544
      px      :     0.027801
      py      :     0.019835

  7 H s       :     0.657358  s :     0.657358
      pz      :     0.060329  p :     0.144571
      px      :     0.035704
      py      :     0.048538



                      *****************************
                      * MAYER POPULATION ANALYSIS *
                      *****************************

  NA   - Mulliken gross atomic population
  ZA   - Total nuclear charge
  QA   - Mulliken gross atomic charge
  VA   - Mayer's total valence
  BVA  - Mayer's bonded valence
  FA   - Mayer's free valence

  ATOM       NA         ZA         QA         VA         BVA        FA
  0 O      8.3631     8.0000    -0.3631     2.0694     2.0694    -0.0000
  1 C      5.7364     6.0000     0.2636     4.3317     4.3317     0.0000
  2 O      8.3070     8.0000    -0.3070     2.1670     2.1670    -0.0000
  3 C      6.3323     6.0000    -0.3323     3.8408     3.8408     0.0000
  4 H      0.8637     1.0000     0.1363     0.9757     0.9757    -0.0000
  5 H      0.8637     1.0000     0.1363     0.9756     0.9756    -0.0000
  6 H      0.8577     1.0000     0.1423     0.9842     0.9842     0.0000
  7 H      0.6761     1.0000     0.3239     0.9283     0.9283    -0.0000

  Mayer bond orders larger than 0.100000
B(  0-O ,  1-C ) :   1.1954 B(  0-O ,  7-H ) :   0.8575 B(  1-C ,  2-O ) :   2.0751 
B(  1-C ,  3-C ) :   1.0187 B(  3-C ,  4-H ) :   0.9416 B(  3-C ,  5-H ) :   0.9416 
B(  3-C ,  6-H ) :   0.9707 

-------
TIMINGS
-------

Total SCF time: 0 days 0 hours 0 min 45 sec 

Total time                  ....      45.335 sec
Sum of individual times     ....      44.755 sec  ( 98.7%)

SCF preparation             ....       0.798 sec  (  1.8%)
Fock matrix formation       ....      30.176 sec  ( 66.6%)
  Startup                   ....       1.984 sec  (  6.6% of F)
  Split-RI-J                ....       7.390 sec  ( 24.5% of F)
  Chain of spheres X        ....      10.707 sec  ( 35.5% of F)
  XC integration            ....       7.094 sec  ( 23.5% of F)
    XC Preparation          ....       0.000 sec  (  0.0% of XC)
    Basis function eval.    ....       0.810 sec  ( 11.4% of XC)
    Density eval.           ....       1.477 sec  ( 20.8% of XC)
    XC-Functional eval.     ....       0.450 sec  (  6.3% of XC)
    XC-Potential eval.      ....       1.615 sec  ( 22.8% of XC)
Diagonalization             ....       0.000 sec  (  0.0%)
Density matrix formation    ....       3.859 sec  (  8.5%)
Total Energy calculation    ....       1.405 sec  (  3.1%)
Population analysis         ....       0.327 sec  (  0.7%)
Orbital Transformation      ....       0.805 sec  (  1.8%)
Orbital Orthonormalization  ....       0.000 sec  (  0.0%)
DIIS solution               ....       6.609 sec  ( 14.6%)
SOSCF solution              ....       0.777 sec  (  1.7%)
Finished LeanSCF after  45.5 sec

Maximum memory used throughout the entire LEANSCF-calculation: 12.7 MB


-------------------------------------------------------------------------------
                          DFT DISPERSION CORRECTION                            
                                                                               
                              DFTD3 V3.1  Rev 1                                
                          USING Becke-Johnson damping                          
-------------------------------------------------------------------------------
The TPSSH functional is recognized
Active option DFTDOPT                   ...         4   

molecular C6(AA) [au] = 530.235015 


            DFT-D V3
 parameters
 s6 scaling factor         :     1.0000 
 a1 scaling factor         :     0.4529 
 s8 scaling factor         :     2.2382 
 a2 scaling factor         :     4.6550 
 ad hoc parameters k1-k3   :    16.0000     1.3333    -4.0000 

 Edisp/kcal,au: -2.888109762459  -0.004602495379 
 E6   /kcal   :  -1.441369620 
 E8   /kcal   :  -1.446740142 
 % E8         :  50.092976411 

-------------------------   ----------------
Dispersion correction           -0.004602495
-------------------------   ----------------


-------------------------   --------------------
FINAL SINGLE POINT ENERGY      -229.191392422364
-------------------------   --------------------



           ************************************************************
           *        Program running with 4 parallel MPI-processes     *
           *              working on a common directory               *
           ************************************************************

------------------------------------------------------------------------------
                              ORCA PROPERTY CALCULATIONS
------------------------------------------------------------------------------

GBWName                                 ... CS_PdOAc_006_sp_01.gbw
Number of atoms                         ...      8
Number of basis functions               ...    148
Max core memory                         ...   3500 MB

Electric properties:
Dipole moment                           ... YES
Quadrupole moment                       ...  NO
Static polarizability (Dipole/Dipole)   ...  NO
Static polarizability (Dipole/Quad.)    ...  NO
Static polarizability (Quad./Quad.)     ...  NO
Static polarizability (Velocity)        ...  NO

Atomic electric properties:
Dipole moment                           ...  NO
Quadrupole moment                       ...  NO
Static polarizability                   ...  NO

Choice of electric origin               ... Center of mass
Position of electric origin             ...     1.241122    -1.472563     0.941331

General magnetic properties:
Magnetizability                         ...  NO

EPR properties:
g-Tensor (aka g-matrix)                 ...  NO
Zero-Field splitting spin-orbit         ...  NO
Zero-field splitting spin-spin          ...  NO
Hyperfine couplings                     ...  NO (   0 nuclei)
Quadrupole couplings                    ...  NO (   0 nuclei)
Contact density                         ...  NO (   0 nuclei)

NMR properties:
Chemical shifts                         ...  NO (   0 nuclei)
Spin-rotation constants                 ...  NO (   0 nuclei)
Spin-spin couplings                     ...  NO (   0 nuclei,    0 pairs)

Choice of magnetic origin               ... GIAO
Position of magnetic origin             ...     0.000000     0.000000     0.000000

Properties with geometric perturbations:
SCF Hessian                             ...  NO
IR spectrum                             ...  NO
VCD spectrum                            ...  NO
X-ray spectroscopy properties:
SCF XES/XAS/RIXS spectra                ...  NO


-------------
DIPOLE MOMENT
-------------

Method             : SCF
Type of density    : Electron Density
Multiplicity       :   1
Irrep              :   0
Energy             :  -229.1867899269856821 Eh
Relativity type    : 
Basis              : AO
                                X                 Y                 Z
Electronic contribution:      0.832426416       2.151773116      -2.430718857
Nuclear contribution   :     -1.425027740      -2.157446736       2.749355632
                        -----------------------------------------
Total Dipole Moment    :     -0.592601324      -0.005673620       0.318636775
                        -----------------------------------------
Magnitude (a.u.)       :      0.672858019
Magnitude (Debye)      :      1.710269167



--------------------
Rotational spectrum 
--------------------
 
Rotational constants in cm-1:             0.382156             0.316545             0.178972 
Rotational constants in MHz :         11456.738921          9489.779872          5365.458298 

Dipole components along the rotational axes: 
x,y,z [a.u.] :    -0.294707    -0.604879     0.002554 
x,y,z [Debye]:    -0.749086    -1.537481     0.006492 

 

Dipole moment calculation done in   0.1 sec 

Maximum memory used throughout the entire PROP-calculation: 6.7 MB

--------------------------------
SUGGESTED CITATIONS FOR THIS RUN
--------------------------------

Below you find a list of papers that are relevant to this ORCA run
We neither can nor want to force you to cite these papers, but we appreciate if you do
You receive ORCA, which is the product of decades of hard work by many enthusiastic individuals, for free
The only thing we kindly ask in return is that you cite our papers,
We deeply appreciate it, if you show your appreciation for ORCA by not just citing the generic ORCA reference.

Please note that relegating all ORCA citations to the supporting information does *not* help us.
SI sections are not indexed - citations you put there will not count into any citation statistics
But we need these citations in order to attract the funding resources that allow us to do what we are doing

Therefore, if you are a happy ORCA user, please consider citing a few of the papers listed below in the main body of your paper

In addition to the list printed below, the program has created the file CS_PdOAc_006_sp_01.bibtex that contains the list in bibtex format
You can import this file easily into all common literature databanks and citation aid programs


List of essential papers. We consider these as the minimum necessary citations

  1. Neese,F.
     Software update: the ORCA program system, version 5.0
     WIRES Comput. Molec. Sci., 2022 12(1)e1606
     doi.org/10.1002/wcms.1606

List of papers to cite with high priority. The work reported in these papers was absolutely
necessary for this run to complete.
Our perspective: the developers of density functionals and basis sets usually get cited in chemistry papers
Good! But without the algorithms to do something with them, the functionals or basis sets would not do anything.
Hence, in our opinion, the algorithm design and method developments papers are equally worthy of getting cited

  1. Neese,F.
     An improvement of the resolution of the identity approximation for the formation of the Coulomb matrix
     J. Comp. Chem., 2003 24(14)1740-1747
     doi.org/10.1002/jcc.10318
  2. Neese,F.; Wennmohs,F.; Hansen,A.; Becker,U.
     Efficient, approximate and parallel Hartree-Fock and hybrid DFT calculations. A 'chain-of-spheres' algorithm for the Hartree-Fock exchange
     Chem. Phys., 2009 356(1-3)98-109
     doi.org/10.1016/j.chemphys.2008.10.036
  3. Helmich-Paris,B.; de Souza,B.; Neese,F.; Izsák,R.
     An improved chain of spheres for exchange algorithm
     J. Chem. Phys., 2021 155 104109
     doi.org/doi: 10.1063/5.0058766.
  4. Neese,F.
     The SHARK Integral Generation and Digestion System
     J. Comp. Chem., 2022  1-16
     doi.org/10.1002/jcc.26942
  5. Grimme,S.; Antony,J.; Ehrlich,S.; Krieg,H.
     A consistent and accurate ab initio parametrization of density functional dispersion correction (DFT-D) for the 94 elements H-Pu
     J. Chem. Phys., 2010 132 154104-XXXX
     doi.org/10.1063/1.3382344
  6. Grimme,S.; Ehrlich,S.; Goerigk,L.
     Effect of the damping function in dispersion corrected density functional theory
     J. Comput. Chem., 2011 32(7)1456-1465
     doi.org/10.1002/jcc.21759

List of suggested additional citations. These are papers that are important in the 'surrounding' of 
of this run, or papers that preceded the highly important papers. If you like your results we are grateful for a citation.

  1. Izsak,R.; Neese,F.
     An overlap fitted chain of spheres exchange method
     J. Chem. Phys., 2011 135 144105
     doi.org/10.1063/1.3646921
  2. Izsak,R.; Hansen,A.; Neese,F.
     The resolution of identity and chain of spheres approximations for the LPNO-CCSD singles Fock term
     Molec. Phys., 2012 110 2413-2417
     doi.org/10.1080/00268976.2012.687466
  3. Neese,F.
     The ORCA program system
     WIRES Comput. Molec. Sci., 2012 2(1)73-78
     doi.org/10.1002/wcms.81
  4. Izsak,R.; Neese,F.; Klopper,W.
     Robust fitting techniques in the chain of spheres approximation to the Fock exchange: The role of the complementary space
     J. Chem. Phys., 2013 139 
     doi.org/10.1063/1.4819264
  5. Neese,F.
     Software update: the ORCA program system, version 4.0
     WIRES Comput. Molec. Sci., 2018 8(1)1-6
     doi.org/10.1002/wcms.1327
  6. Neese,F.; Wennmohs,F.; Becker,U.; Riplinger,C.
     The ORCA quantum chemistry program package
     J. Chem. Phys., 2020 152 Art. No. L224108
     doi.org/10.1063/5.0004608

List of optional additional citations

  1. Neese,F.
     Approximate second-order SCF convergence for spin unrestricted wavefunctions
     Chem. Phys. Lett., 2000 325(1-3)93-98
     doi.org/10.1016/s0009-2614(00)00662-x

Timings for individual modules:

Sum of individual times          ...       54.795 sec (=   0.913 min)
Startup calculation              ...        3.257 sec (=   0.054 min)   5.9 %
SCF iterations                   ...       49.764 sec (=   0.829 min)  90.8 %
Property calculations            ...        1.773 sec (=   0.030 min)   3.2 %
                             ****ORCA TERMINATED NORMALLY****
TOTAL RUN TIME: 0 days 0 hours 0 minutes 57 seconds 683 msec
