
                                 *****************
                                 * O   R   C   A *
                                 *****************

                                            #,                                       
                                            ###                                      
                                            ####                                     
                                            #####                                    
                                            ######                                   
                                           ########,                                 
                                     ,,################,,,,,                         
                               ,,#################################,,                 
                          ,,##########################################,,             
                       ,#########################################, ''#####,          
                    ,#############################################,,   '####,        
                  ,##################################################,,,,####,       
                ,###########''''           ''''###############################       
              ,#####''   ,,,,##########,,,,          '''####'''          '####       
            ,##' ,,,,###########################,,,                        '##       
           ' ,,###''''                  '''############,,,                           
         ,,##''                                '''############,,,,        ,,,,,,###''
      ,#''                                            '''#######################'''  
     '                                                          ''''####''''         
             ,#######,   #######,   ,#######,      ##                                
            ,#'     '#,  ##    ##  ,#'     '#,    #''#        ,####,   ,####,        
            ##       ##  ##   ,#'  ##            #'  '#       #'       #'  '#        
            ##       ##  #######   ##           ,######,      #####,   #    #        
            '#,     ,#'  ##    ##  '#,     ,#' ,#      #,     #,   #   #,  ,#        
             '#######'   ##     ##  '#######'  #'      '#     '####' # '####'        



                #########################################################
                #                        -***-                          #
                #          Department of theory and spectroscopy        #
                #                                                       #
                #                      Frank Neese                      #
                #                                                       #
                #     Directorship, Architecture, Infrastructure        #
                #                    SHARK, DRIVERS                     #
                #        Core code/Algorithms in most modules           #
                #                                                       #
                #        Max Planck Institute fuer Kohlenforschung      #
                #                Kaiser Wilhelm Platz 1                 #
                #                 D-45470 Muelheim/Ruhr                 #
                #                      Germany                          #
                #                                                       #
                #                  All rights reserved                  #
                #                        -***-                          #
                #########################################################


                         Program Version 6.0.0  -   RELEASE  -


 With contributions from (in alphabetic order):
   Daniel Aravena         : Magnetic Suceptibility
   Michael Atanasov       : Ab Initio Ligand Field Theory (pilot matlab implementation)
   Alexander A. Auer      : GIAO ZORA, VPT2 properties, NMR spectrum
   Ute Becker             : All parallelization in ORCA, NUMFREQ, NUMCALC
   Giovanni Bistoni       : ED, misc. LED, open-shell LED, HFLD
   Martin Brehm           : Molecular dynamics
   Dmytro Bykov           : pre 5.0 version of the SCF Hessian
   Marcos Casanova-Páez   : Triplet and SCS-CIS(D). UHF-(DLPNO)-IP/EA/STEOM-CCSD. UHF-CVS-IP/STEOM-CCSD
   Vijay G. Chilkuri      : MRCI spin determinant printing, contributions to CSF-ICE
   Pauline Colinet        : FMM embedding
   Dipayan Datta          : RHF DLPNO-CCSD density
   Achintya Kumar Dutta   : EOM-CC, STEOM-CC
   Nicolas Foglia         : Exact transition moments, OPA infrastructure, MCD improvements
   Dmitry Ganyushin       : Spin-Orbit,Spin-Spin,Magnetic field MRCI
   Miquel Garcia          : C-PCM and meta-GGA Hessian, CCSD/C-PCM, Gaussian charge scheme
   Tiago L. C. Gouveia    : GS-ROHF, GS-ROCIS
   Yang Guo               : DLPNO-NEVPT2, F12-NEVPT2, CIM, IAO-localization
   Andreas Hansen         : Spin unrestricted coupled pair/coupled cluster methods
   Ingolf Harden          : AUTO-CI MPn and infrastructure 
   Benjamin Helmich-Paris : MC-RPA, TRAH-(SCF,CASSCF), AVAS, COSX integrals, SCF dyn. polar.
   Lee Huntington         : MR-EOM, pCC
   Robert Izsak           : Overlap fitted RIJCOSX, COSX-SCS-MP3, EOM
   Riya Kayal             : Wick's Theorem for AUTO-CI, AUTO-CI UHF-CCSDT
   Emily Kempfer          : AUTO-CI, RHF CISDT and CCSDT
   Christian Kollmar      : KDIIS, OOCD, Brueckner-CCSD(T), CCSD density, CASPT2, CASPT2-K, improved NEVPT2
   Axel Koslowski         : Symmetry handling
   Simone Kossmann        : Meta GGA functionals, TD-DFT gradient, OOMP2, (MP2 Hessian; deprecated post 5.0)
   Lucas Lang             : DCDCAS
   Marvin Lechner         : AUTO-CI (C++ implementation), FIC-MRCC
   Spencer Leger          : CASSCF response
   Dagmar Lenk            : GEPOL surface, SMD, ORCA-2-JSON
   Dimitrios Liakos       : Extrapolation schemes; Compound Job, initial MDCI parallelization
   Dimitrios Manganas     : Further ROCIS development; embedding schemes. LFT, Crystal Embedding
   Dimitrios Pantazis     : SARC Basis sets
   Anastasios Papadopoulos: AUTO-CI, single reference methods and gradients
   Taras Petrenko         : pre 6.0 DFT Hessian and TD-DFT gradient, (ASA, deprecated), ECA, 1-Electron XAS/XES, NRVS
   Peter Pinski           : DLPNO-MP2, DLPNO-MP2 Gradient
   Christoph Reimann      : Effective Core Potentials
   Marius Retegan         : Local ZFS, SOC
   Christoph Riplinger    : Optimizer, TS searches, QM/MM, DLPNO-CCSD(T), (RO)-DLPNO pert. Triples
   Michael Roemelt        : Original ROCIS implementation
   Masaaki Saitow         : Open-shell DLPNO-CCSD energy and density
   Barbara Sandhoefer     : DKH picture change effects
   Kantharuban Sivalingam : CASSCF convergence/infrastructure, NEVPT2 and variants, FIC-MRCI
   Bernardo de Souza      : ESD, SOC TD-DFT
   Georgi Stoychev        : AutoAux, RI-MP2 NMR, DLPNO-MP2 response, X2C
   Van Anh Tran           : RI-MP2 g-tensors
   Willem Van den Heuvel  : Paramagnetic NMR
   Zikuan Wang            : NOTCH, Electric field optimization 
   Frank Wennmohs         : Technical directorship and infrastructure
   Hang Xu                : AUTO-CI-Response properties 


 We gratefully acknowledge several colleagues who have allowed us to
 interface, adapt or use parts of their codes:
   Stefan Grimme, W. Hujo, H. Kruse, P. Pracht,  : VdW corrections, initial TS optimization,
                  C. Bannwarth, S. Ehlert,         DFT functionals, gCP, sTDA/sTD-DF
                  L. Wittmann, M. Mueller
   Ed Valeev, F. Pavosevic, A. Kumar             : LibInt (2-el integral package), F12 methods
   Garnet Chan, S. Sharma, J. Yang, R. Olivares  : DMRG
   Ulf Ekstrom                                   : XCFun DFT Library
   Mihaly Kallay                                 : mrcc  (arbitrary order and MRCC methods)
   Frank Weinhold                                : gennbo (NPA and NBO analysis)
   Simon Mueller                                 : openCOSMO-RS
   Christopher J. Cramer and Donald G. Truhlar   : smd solvation model
   Lars Goerigk                                  : TD-DFT with DH, B97 family of functionals
   V. Asgeirsson, H. Jonsson                     : NEB implementation
   FAccTs GmbH                                   : IRC, NEB, NEB-TS, DLPNO-Multilevel, CI-OPT
                                                   MM, QMMM, 2- and 3-layer-ONIOM, Crystal-QMMM,
                                                   LR-CPCM, SF, NACMEs, symmetry and pop. for TD-DFT,
                                                   nearIR, NL-DFT gradient (VV10), updates on ESD,
                                                   ML-optimized integration grids, MBIS, APM,
                                                   GOAT, DOCKER, SOLVATOR, interface openCOSMO-RS
   S Lehtola, MJT Oliveira, MAL Marques          : LibXC Library
   Liviu Ungur et al                             : ANISO software


 Your calculation uses the libint2 library for the computation of 2-el integrals
 For citations please refer to: http://libint.valeyev.net

 Your ORCA version has been built with support for libXC version: 6.2.2
 For citations please refer to: https://libxc.gitlab.io

 This ORCA versions uses:
   CBLAS   interface :  Fast vector & matrix operations
   LAPACKE interface :  Fast linear algebra routines
   SCALAPACK package :  Parallel linear algebra routines
   Shared memory     :  Shared parallel matrices
   BLAS/LAPACK       :  OpenBLAS 0.3.27  USE64BITINT DYNAMIC_ARCH NO_AFFINITY Sandybridge SINGLE_THREADED
        Core in use  :  Sandybridge
   Copyright (c) 2011-2014, The OpenBLAS Project


NOTE: MaxCore=3500 MB was set to SCF,MP2,MDCI,CIPSI,MRCI and CIS
      => If you want to overwrite this, your respective input block should be placed after the MaxCore statement
Your calculation utilizes the atom-pairwise dispersion correction
with the Becke-Johnson damping scheme (D3BJ)


Warning: RI is on but no J-basis has been assigned. Assigning Def2/J (nothing to worry about!)
================================================================================

----- Orbital basis set information -----
Your calculation utilizes the basis: def2-TZVP
   F. Weigend and R. Ahlrichs, Phys. Chem. Chem. Phys. 7, 3297 (2005).

----- AuxJ basis set information -----
Your calculation utilizes the auxiliary basis: def2/J
   F. Weigend, Phys. Chem. Chem. Phys. 8, 1057 (2006).

================================================================================
                                        WARNINGS
                       Please study these warnings very carefully!
================================================================================

Using LibXC functional ID 497 : Re-regularized SCAN exchange by Furness et al
[ 1]  J. W. Furness, A. D. Kaplan, J. Ning, J. P. Perdew, and J. Sun.,  J. Phys. Chem. Lett. 11, 8208-8215 (2020)
[ 2]  J. W. Furness, A. D. Kaplan, J. Ning, J. P. Perdew, and J. Sun.,  J. Phys. Chem. Lett. 11, 9248-9248 (2020)
Using LibXC functional ID 498 : Re-regularized SCAN correlation by Furness et al
[ 1]  J. W. Furness, A. D. Kaplan, J. Ning, J. P. Perdew, and J. Sun.,  J. Phys. Chem. Lett. 11, 8208-8215 (2020)
[ 2]  J. W. Furness, A. D. Kaplan, J. Ning, J. P. Perdew, and J. Sun.,  J. Phys. Chem. Lett. 11, 9248-9248 (2020)
Using LibXC functional ID 497 : Re-regularized SCAN exchange by Furness et al
[ 1]  J. W. Furness, A. D. Kaplan, J. Ning, J. P. Perdew, and J. Sun.,  J. Phys. Chem. Lett. 11, 8208-8215 (2020)
[ 2]  J. W. Furness, A. D. Kaplan, J. Ning, J. P. Perdew, and J. Sun.,  J. Phys. Chem. Lett. 11, 9248-9248 (2020)
Using LibXC functional ID 498 : Re-regularized SCAN correlation by Furness et al
[ 1]  J. W. Furness, A. D. Kaplan, J. Ning, J. P. Perdew, and J. Sun.,  J. Phys. Chem. Lett. 11, 8208-8215 (2020)
[ 2]  J. W. Furness, A. D. Kaplan, J. Ning, J. P. Perdew, and J. Sun.,  J. Phys. Chem. Lett. 11, 9248-9248 (2020)

================================================================================
                                       INPUT FILE
================================================================================
NAME = CS_PdOAc_005_sp_02.inp
|  1> !r2SCANh def2-TZVP d3 TightSCF SlowConv RIJCOSX defgrid2
|  2> 
|  3> %pal
|  4> nprocs 4
|  5> end
|  6> 
|  7> %scf
|  8> MaxIter 1500
|  9> end
| 10> 
| 11> %maxcore 3500
| 12> 
| 13>  
| 14> 
| 15> * xyz -1 1
| 16>   O           0.04097369729735      0.11058448016261      0.10410501105795
| 17>   C           0.91129366911499     -0.72990183455175      0.40525987097505
| 18>   O           2.07191816196502     -0.86685276981809     -0.02560522284868
| 19>   C           0.46292092331661     -1.75834321798077      1.50368886391921
| 20>   H           0.23993789866618     -1.22049979178529      2.44613361176739
| 21>   H          -0.47945344012185     -2.25187814320855      1.19633043901367
| 22>   H           1.23604429576170     -2.52416776681814      1.69809167311541
| 23> *
| 24> 
| 25>                          ****END OF INPUT****
================================================================================

                       ****************************
                       * Single Point Calculation *
                       ****************************

---------------------------------
CARTESIAN COORDINATES (ANGSTROEM)
---------------------------------
  O      0.040974    0.110584    0.104105
  C      0.911294   -0.729902    0.405260
  O      2.071918   -0.866853   -0.025605
  C      0.462921   -1.758343    1.503689
  H      0.239938   -1.220500    2.446134
  H     -0.479453   -2.251878    1.196330
  H      1.236044   -2.524168    1.698092

----------------------------
CARTESIAN COORDINATES (A.U.)
----------------------------
  NO LB      ZA    FRAG     MASS         X           Y           Z
   0 O     8.0000    0    15.999    0.077429    0.208974    0.196730
   1 C     6.0000    0    12.011    1.722095   -1.379315    0.765830
   2 O     8.0000    0    15.999    3.915358   -1.638114   -0.048387
   3 C     6.0000    0    12.011    0.874794   -3.322787    2.841560
   4 H     1.0000    0     1.008    0.453417   -2.306410    4.622523
   5 H     1.0000    0     1.008   -0.906036   -4.255433    2.260737
   6 H     1.0000    0     1.008    2.335785   -4.769986    3.208928

--------------------------------
INTERNAL COORDINATES (ANGSTROEM)
--------------------------------
 O      0   0   0     0.000000000000     0.00000000     0.00000000
 C      1   0   0     1.246823302725     0.00000000     0.00000000
 O      2   1   0     1.245571957435   129.86569333     0.00000000
 C      2   1   3     1.570119756854   114.27926988   179.50989176
 H      4   2   1     1.107790180102   109.55020029   297.74500996
 H      4   2   1     1.107300936804   109.92499493    54.24288355
 H      4   2   1     1.105440835525   112.15320431   176.42413643

---------------------------
INTERNAL COORDINATES (A.U.)
---------------------------
 O      0   0   0     0.000000000000     0.00000000     0.00000000
 C      1   0   0     2.356154579542     0.00000000     0.00000000
 O      2   1   0     2.353789879645   129.86569333     0.00000000
 C      2   1   3     2.967096337914   114.27926988   179.50989176
 H      4   2   1     2.093420054240   109.55020029   297.74500996
 H      4   2   1     2.092495518393   109.92499493    54.24288355
 H      4   2   1     2.088980436395   112.15320431   176.42413643

---------------------
BASIS SET INFORMATION
---------------------
There are 3 groups of distinct atoms

 Group   1 Type O   : 11s6p2d1f contracted to 5s3p2d1f pattern {62111/411/11/1}
 Group   2 Type C   : 11s6p2d1f contracted to 5s3p2d1f pattern {62111/411/11/1}
 Group   3 Type H   : 5s1p contracted to 3s1p pattern {311/1}

Atom   0O    basis set group =>   1
Atom   1C    basis set group =>   2
Atom   2O    basis set group =>   1
Atom   3C    basis set group =>   2
Atom   4H    basis set group =>   3
Atom   5H    basis set group =>   3
Atom   6H    basis set group =>   3
---------------------------------
AUXILIARY/J BASIS SET INFORMATION
---------------------------------
There are 3 groups of distinct atoms

 Group   1 Type O   : 12s5p4d2f1g contracted to 6s4p3d1f1g pattern {711111/2111/211/2/1}
 Group   2 Type C   : 12s5p4d2f1g contracted to 6s4p3d1f1g pattern {711111/2111/211/2/1}
 Group   3 Type H   : 5s2p1d contracted to 3s1p1d pattern {311/2/1}

Atom   0O    basis set group =>   1
Atom   1C    basis set group =>   2
Atom   2O    basis set group =>   1
Atom   3C    basis set group =>   2
Atom   4H    basis set group =>   3
Atom   5H    basis set group =>   3
Atom   6H    basis set group =>   3


           ************************************************************
           *        Program running with 4 parallel MPI-processes     *
           *              working on a common directory               *
           ************************************************************
------------------------------------------------------------------------------
                             ORCA STARTUP CALCULATIONS
                           -- RI-GTO INTEGRALS CHOSEN --
------------------------------------------------------------------------------
------------------------------------------------------------------------------
                   ___                                                        
                  /   \      - P O W E R E D   B Y -                         
                 /     \                                                     
                 |  |  |   _    _      __       _____    __    __             
                 |  |  |  | |  | |    /  \     |  _  \  |  |  /  |          
                  \  \/   | |  | |   /    \    | | | |  |  | /  /          
                 / \  \   | |__| |  /  /\  \   | |_| |  |  |/  /          
                |  |  |   |  __  | /  /__\  \  |    /   |      \           
                |  |  |   | |  | | |   __   |  |    \   |  |\   \          
                \     /   | |  | | |  |  |  |  | |\  \  |  | \   \       
                 \___/    |_|  |_| |__|  |__|  |_| \__\ |__|  \__/        
                                                                              
                      - O R C A' S   B I G   F R I E N D -                    
                                      &                                       
                       - I N T E G R A L  F E E D E R -                       
                                                                              
 v1 FN, 2020, v2 2021, v3 2022-2024                                           
------------------------------------------------------------------------------


----------------------
SHARK INTEGRAL PACKAGE
----------------------

Number of atoms                             ...      7
Number of basis functions                   ...    142
Number of shells                            ...     56
Maximum angular momentum                    ...      3
Integral batch strategy                     ... SHARK/LIBINT Hybrid
RI-J (if used) integral strategy            ... SPLIT-RIJ (Revised 2003 algorithm where possible)
Printlevel                                  ...      1
Contraction scheme used                     ... SEGMENTED contraction
Prescreening option                         ... SCHWARTZ
   Thresh                                   ... 2.500e-11
   Tcut                                     ... 2.500e-12
   Tpresel                                  ... 2.500e-12 
Coulomb Range Separation                    ... NOT USED
Exchange Range Separation                   ... NOT USED
Multipole approximations                    ... NOT USED
Finite Nucleus Model                        ... NOT USED
CABS basis                                  ... NOT available
Auxiliary Coulomb fitting basis             ... AVAILABLE
   # of basis functions in Aux-J            ...    229
   # of shells in Aux-J                     ...     75
   Maximum angular momentum in Aux-J        ...      4
Auxiliary J/K fitting basis                 ... NOT available
Auxiliary Correlation fitting basis         ... NOT available
Auxiliary 'external' fitting basis          ... NOT available

Checking pre-screening integrals            ... done (  0.0 sec) Dimension = 56
Check shell pair data                       ... done (  0.0 sec)
Shell pair information
Shell pair cut-off parameter TPreSel        ...   2.5e-12
Total number of shell pairs                 ...      1596
Shell pairs after pre-screening             ...      1563
Total number of primitive shell pairs       ...      4948
Primitive shell pairs kept                  ...      3969
          la=0 lb=0:    411 shell pairs
          la=1 lb=0:    431 shell pairs
          la=1 lb=1:    120 shell pairs
          la=2 lb=0:    227 shell pairs
          la=2 lb=1:    120 shell pairs
          la=2 lb=2:     36 shell pairs
          la=3 lb=0:    116 shell pairs
          la=3 lb=1:     60 shell pairs
          la=3 lb=2:     32 shell pairs
          la=3 lb=3:     10 shell pairs

Calculating one electron integrals          ... done (  0.0 sec)
Calculating RI/J V-Matrix + Cholesky decomp.... done (  0.0 sec)
Calculating Nuclear repulsion               ... done (  0.0 sec) ENN=    111.838153434439 Eh

Diagonalization of the overlap matrix:
Smallest eigenvalue                        ... 7.211e-04
Time for diagonalization                   ...    0.005 sec
Threshold for overlap eigenvalues          ... 1.000e-07
Number of eigenvalues below threshold      ... 0
Time for construction of square roots      ...    0.010 sec
Total time needed                          ...    0.034 sec

-------------------
DFT GRID GENERATION
-------------------

General Integration Accuracy     IntAcc      ... 4.388
Radial Grid Type                 RadialGrid  ... OptM3 with GC (2021)
Angular Grid (max. ang.)         AngularGrid ... 4 (Lebedev-302)
Angular grid pruning method      GridPruning ... 4 (adaptive)
Weight generation scheme         WeightScheme... mBecke (2022)
Basis function cutoff            BFCut       ... 1.0000e-11
Integration weight cutoff        WCut        ... 1.0000e-14
Partially contracted basis set               ... off
Rotationally invariant grid construction     ... off
Angular grids for H and He will be reduced by one unit

Total number of grid points                  ...    34213
Total number of batches                      ...      539
Average number of points per batch           ...       63
Average number of grid points per atom       ...     4888

--------------------
COSX GRID GENERATION
--------------------

GRIDX 1
-------
General Integration Accuracy     IntAcc      ... 3.816
Radial Grid Type                 RadialGrid  ... OptM3 with GC (2021)
Angular Grid (max. ang.)         AngularGrid ... 1 (Lebedev-50)
Angular grid pruning method      GridPruning ... 4 (adaptive)
Weight generation scheme         WeightScheme... mBecke (2022)
Basis function cutoff            BFCut       ... 1.0000e-11
Integration weight cutoff        WCut        ... 1.0000e-14
Partially contracted basis set               ... on
Rotationally invariant grid construction     ... off
Angular grids for H and He will be reduced by one unit

Total number of grid points                  ...     4372
Total number of batches                      ...       38
Average number of points per batch           ...      115
Average number of grid points per atom       ...      625
UseSFitting                                  ... on

GRIDX 2
-------
General Integration Accuracy     IntAcc      ... 4.020
Radial Grid Type                 RadialGrid  ... OptM3 with GC (2021)
Angular Grid (max. ang.)         AngularGrid ... 2 (Lebedev-110)
Angular grid pruning method      GridPruning ... 4 (adaptive)
Weight generation scheme         WeightScheme... mBecke (2022)
Basis function cutoff            BFCut       ... 1.0000e-11
Integration weight cutoff        WCut        ... 1.0000e-14
Partially contracted basis set               ... on
Rotationally invariant grid construction     ... off
Angular grids for H and He will be reduced by one unit

Total number of grid points                  ...     9817
Total number of batches                      ...       79
Average number of points per batch           ...      124
Average number of grid points per atom       ...     1402
UseSFitting                                  ... on

GRIDX 3
-------
General Integration Accuracy     IntAcc      ... 4.338
Radial Grid Type                 RadialGrid  ... OptM3 with GC (2021)
Angular Grid (max. ang.)         AngularGrid ... 3 (Lebedev-194)
Angular grid pruning method      GridPruning ... 4 (adaptive)
Weight generation scheme         WeightScheme... mBecke (2022)
Basis function cutoff            BFCut       ... 1.0000e-11
Integration weight cutoff        WCut        ... 1.0000e-14
Partially contracted basis set               ... on
Rotationally invariant grid construction     ... off
Angular grids for H and He will be reduced by one unit

Total number of grid points                  ...    21702
Total number of batches                      ...      172
Average number of points per batch           ...      126
Average number of grid points per atom       ...     3100
UseSFitting                                  ... on
Initializing property integral containers    ... done (  0.1 sec)

SHARK setup successfully completed in   1.2 seconds

Maximum memory used throughout the entire STARTUP-calculation: 13.8 MB


           ************************************************************
           *        Program running with 4 parallel MPI-processes     *
           *              working on a common directory               *
           ************************************************************
-------------------------------------------------------------------------------
                                 ORCA GUESS
                   Start orbitals & Density for SCF / CASSCF
-------------------------------------------------------------------------------

------------
SCF SETTINGS
------------
Hamiltonian:
 Density Functional     Method          .... DFT(GTOs)
  Functional kind                       .... Exchange
  Functional name                       .... Re-regularized SCAN exchange by Furness et al
  Functional family                     .... MGGA
  Functional refs                              
    [ 0] J. W. Furness, A. D. Kaplan, J. Ning, J. P. Perdew, and J. Sun.,  J. Phys. Chem. Lett. 11, 8208-8215 (2020), doi: 10.1021/acs.jpclett.0c02405
    [ 1] J. W. Furness, A. D. Kaplan, J. Ning, J. P. Perdew, and J. Sun.,  J. Phys. Chem. Lett. 11, 9248-9248 (2020), doi: 10.1021/acs.jpclett.0c03077
  Functional external parameters        .... 6
    Parameter  0 _c1        =  6.670000e-01 : c1 parameter        
    Parameter  1 _c2        =  8.000000e-01 : c2 parameter        
    Parameter  2 _d         =  1.240000e+00 : d parameter         
    Parameter  3 _k1        =  6.500000e-02 : k1 parameter        
    Parameter  4 _eta       =  1.000000e-03 : eta parameter       
    Parameter  5 _dp2       =  3.610000e-01 : dp2 parameter       
  Functional kind                       .... Correlation
  Functional name                       .... Re-regularized SCAN correlation by Furness et al
  Functional family                     .... MGGA
  Functional refs                              
    [ 0] J. W. Furness, A. D. Kaplan, J. Ning, J. P. Perdew, and J. Sun.,  J. Phys. Chem. Lett. 11, 8208-8215 (2020), doi: 10.1021/acs.jpclett.0c02405
    [ 1] J. W. Furness, A. D. Kaplan, J. Ning, J. P. Perdew, and J. Sun.,  J. Phys. Chem. Lett. 11, 9248-9248 (2020), doi: 10.1021/acs.jpclett.0c03077
  Functional external parameters        .... 1
    Parameter  0 _eta       =  1.000000e-03 : Regularization parameter
 Gradients option       PostSCFGGA      .... off
 Hybrid DFT is turned on
   Fraction HF Exchange ScalHFX         ....  0.100000
   Scaling of DF-GGA-X  ScalDFX         ....  0.900000
   Scaling of DF-GGA-C  ScalDFC         ....  1.000000
   Scaling of DF-LDA-C  ScalLDAC        ....  1.000000
   Perturbative correction              ....  0.000000
   NL short-range parameter             .... 11.900000
 RI-approximation to the Coulomb term is turned on
   Number of AuxJ basis functions       .... 229
   RIJ-COSX (HFX calculated with COS-X)).... on


General Settings:
 Integral files         IntName         .... CS_PdOAc_005_sp_02
 Hartree-Fock type      HFTyp           .... RHF
 Total Charge           Charge          ....   -1
 Multiplicity           Mult            ....    1
 Number of Electrons    NEL             ....   32
 Basis Dimension        Dim             ....  142
 Nuclear Repulsion      ENuc            ....    111.8381534344 Eh

Convergence Acceleration:
 AO-DIIS                CNVDIIS         .... on
   Start iteration      DIISMaxIt       ....     0
   Startup error        DIISStart       ....  0.200000
   # of expansion vecs  DIISMaxEq       ....     5
   Bias factor          DIISBfac        ....   1.050
   Max. coefficient     DIISMaxC        ....  10.000
 MO-DIIS                CNVKDIIS        .... off
 Trust-Rad. Augm. Hess. CNVTRAH         .... auto
   Auto Start mean grad. ratio tolernc. ....  1.125000
   Auto Start start iteration           ....    50
   Auto Start num. interpolation iter.  ....    10
   Max. Number of Micro iterations      ....    24
   Max. Number of Macro iterations      .... Maxiter - #DIIS iter
   Number of Davidson start vectors     ....     2
   Converg. threshold    (grad. norm)   ....   1.000e-05
   Grad. Scal. Fac. for Micro threshold ....   0.100
   Minimum threshold for Micro iter.    ....   1.000e-02
   NR start threshold (gradient norm)   ....   1.000e-04
   Initial trust radius                 ....   0.400
   Minimum AH scaling param. (alpha)    ....   1.000
   Maximum AH scaling param. (alpha)    .... 1000.000
   Quad. conv. algorithm                .... NR
   White noise on init. David. guess    .... on
   Maximum white noise                  ....   0.010
   Pseudo random numbers                .... off
   Inactive MOs                         .... canonical
   Orbital update algorithm             .... Taylor
   Preconditioner                       .... Diag
   Full preconditioner red. dimension   ....   250
 SOSCF                  CNVSOSCF        .... on
   Start iteration      SOSCFMaxIt      ....   150
   Startup grad/error   SOSCFStart      ....  0.001000
   Hessian update       SOSCFHessUp     .... L-BFGS
 Level Shifting         CNVShift        .... on
   Level shift para.    LevelShift      ....    0.2500
   Turn off err/grad.   ShiftErr        ....    0.0000
 Zerner damping         CNVZerner       .... off
 Static damping         CNVDamp         .... on
   Fraction old density DampFac         ....    0.8500
   Max. Damping (<1)    DampMax         ....    0.9800
   Min. Damping (>=0)   DampMin         ....    0.0000
   Turn off err/grad.   DampErr         ....    0.0300

SCF Procedure:
 Maximum # iterations   MaxIter         ....  1500
 SCF integral mode      SCFMode         .... Direct
   Integral package                     .... SHARK and LIBINT hybrid scheme
 Reset frequency        DirectResetFreq ....    20
 Integral Threshold     Thresh          ....  2.500e-11 Eh
 Primitive CutOff       TCut            ....  2.500e-12 Eh

Convergence Tolerance:
 Convergence Check Mode ConvCheckMode   .... Total+1el-Energy
 Convergence forced     ConvForced      .... 0
 Energy Change          TolE            ....  1.000e-08 Eh
 1-El. energy change                    ....  1.000e-05 Eh
 Orbital Gradient       TolG            ....  1.000e-05
 Orbital Rotation angle TolX            ....  1.000e-05
 DIIS Error             TolErr          ....  5.000e-07

------------------------------
INITIAL GUESS: MODEL POTENTIAL
------------------------------
Loading Hartree-Fock densities                     ... done
Calculating cut-offs                               ... done
Initializing the effective Hamiltonian             ... done
Setting up the integral package (SHARK)            ... done
Starting the Coulomb interaction                   ... done (   0.1 sec)
Making the grid                                    ... done (   0.1 sec)
Mapping shells                                     ... done
Starting the XC term evaluation                    ... done (   0.1 sec)
  promolecular density results
     # of electrons  =     30.999141641
     EX              =    -27.339697312
     EC              =     -1.017764752
     EX+EC           =    -28.357462064
Transforming the Hamiltonian                       ... done (   0.0 sec)
Diagonalizing the Hamiltonian                      ... done (   0.0 sec)
Back transforming the eigenvectors                 ... done (   0.0 sec)
Now organizing SCF variables                       ... done
                      ------------------
                      INITIAL GUESS DONE (   0.4 sec)
                      ------------------
             **** ENERGY FILE WAS UPDATED (CS_PdOAc_005_sp_02.en.tmp) ****
Finished Guess after   0.9 sec
Maximum memory used throughout the entire GUESS-calculation: 9.4 MB


           ************************************************************
           *        Program running with 4 parallel MPI-processes     *
           *              working on a common directory               *
           ************************************************************

-------------------------------------------------------------------------------------------
                                      ORCA LEAN-SCF
                              memory conserving SCF solver
-------------------------------------------------------------------------------------------

----------------------------------------D-I-I-S--------------------------------------------
Iteration    Energy (Eh)           Delta-E    RMSDP     MaxDP     DIISErr   Damp  Time(sec)
-------------------------------------------------------------------------------------------
               ***  Starting incremental Fock matrix formation  ***
    1    -228.2306998289368494     0.00e+00  2.28e-03  9.14e-02  3.10e-01  0.850   1.4
    2    -228.3022168157435203    -7.15e-02  3.44e-03  1.86e-01  2.21e-01  0.850   1.3
                               ***Turning on AO-DIIS***
    3    -228.3463051530292205    -4.41e-02  2.14e-03  1.16e-01  1.41e-01  0.850   2.1
    4    -228.3735320271963474    -2.72e-02  1.21e-03  5.93e-02  1.09e-01  0.850   1.4
    5    -228.3928501592274642    -1.93e-02  7.02e-04  2.73e-02  8.99e-02  0.850   2.5
    6    -228.4078772868250553    -1.50e-02  4.47e-04  1.11e-02  7.57e-02  0.850   2.2
    7    -228.4200790123959450    -1.22e-02  3.21e-04  5.30e-03  6.35e-02  0.850   2.8
    8    -228.4301226798121434    -1.00e-02  2.53e-04  4.03e-03  5.27e-02  0.850   1.3
    9    -228.4383944421654746    -8.27e-03  2.08e-04  3.18e-03  4.40e-02  0.850   1.3
   10    -228.4452438268244805    -6.85e-03  1.72e-04  2.52e-03  3.69e-02  0.850   1.7
   11    -228.4509439568075777    -5.70e-03  1.43e-04  2.79e-03  3.10e-02  0.850   1.3
   12    -228.4557060775675268    -4.76e-03  1.20e-04  2.97e-03  2.59e-02  0.850   2.6
   13    -228.4596941328532012    -3.99e-03  6.76e-04  1.94e-02  2.16e-02  0.000   1.2
   14    -228.4813311098294548    -2.16e-02  8.02e-05  4.44e-03  2.44e-03  0.000   2.8
                              *** Initializing SOSCF ***
---------------------------------------S-O-S-C-F--------------------------------------
Iteration    Energy (Eh)           Delta-E    RMSDP     MaxDP     MaxGrad    Time(sec)
--------------------------------------------------------------------------------------
   15    -228.4813436284035220    -1.25e-05  5.07e-05  3.05e-03  5.89e-04     3.0
               *** Restarting incremental Fock matrix formation ***
   16    -228.4813541505606054    -1.05e-05  4.08e-05  2.58e-03  3.22e-05     1.4
   17    -228.4813541786938913    -2.81e-08  1.53e-05  9.75e-04  2.31e-05     1.5
   18    -228.4813541821272338    -3.43e-09  1.08e-05  6.87e-04  1.61e-05     1.3
                 **** Energy Check signals convergence ****

               *****************************************************
               *                     SUCCESS                       *
               *           SCF CONVERGED AFTER  18 CYCLES          *
               *****************************************************

Recomputing exchange energy using gridx3       ... done (    0.976 sec)
Old exchange energy                            :     -2.809451473 Eh
New exchange energy                            :     -2.809447759 Eh
Exchange energy change after final integration :      0.000003714 Eh
Total energy after final integration           :   -228.481350468 Eh
             **** ENERGY FILE WAS UPDATED (CS_PdOAc_005_sp_02.en.tmp) ****

----------------
TOTAL SCF ENERGY
----------------

Total Energy       :       -228.48135046839877 Eh           -6217.29363 eV

Components:
Nuclear Repulsion  :        111.83815343443949 Eh            3043.27087 eV
Electronic Energy  :       -340.31950761656674 Eh           -9260.56460 eV
One Electron Energy:       -541.34048156997767 Eh          -14730.62339 eV
Two Electron Energy:        201.02097395341096 Eh            5470.05879 eV

Virial components:
Potential Energy   :       -456.04935394156360 Eh          -12409.73382 eV
Kinetic Energy     :        227.56800347316485 Eh            6192.44019 eV
Virial Ratio       :          2.00401351236243

DFT components:
N(Alpha)           :       16.000005257577 electrons
N(Beta)            :       16.000005257577 electrons
N(Total)           :       32.000010515154 electrons
E(X)               :      -25.417129417547 Eh       
E(C)               :       -1.043922813192 Eh       
E(XC)              :      -26.461052230739 Eh       

---------------
SCF CONVERGENCE
---------------

  Last Energy change         ...    3.4333e-09  Tolerance :   1.0000e-08
  Last MAX-Density change    ...    6.8650e-04  Tolerance :   1.0000e-07
  Last RMS-Density change    ...    1.0825e-05  Tolerance :   5.0000e-09
  Last DIIS Error            ...    5.8940e-04  Tolerance :   5.0000e-07
  Last Orbital Gradient      ...    1.6110e-05  Tolerance :   1.0000e-05
  Last Orbital Rotation      ...    3.4317e-05  Tolerance :   1.0000e-05


----------------
ORBITAL ENERGIES
----------------

  NO   OCC          E(Eh)            E(eV) 
   0   2.0000     -18.837133      -512.5844 
   1   2.0000     -18.835139      -512.5302 
   2   2.0000     -10.025564      -272.8095 
   3   2.0000      -9.962578      -271.0955 
   4   2.0000      -0.813759       -22.1435 
   5   2.0000      -0.727461       -19.7952 
   6   2.0000      -0.515945       -14.0396 
   7   2.0000      -0.285522        -7.7695 
   8   2.0000      -0.228604        -6.2206 
   9   2.0000      -0.219502        -5.9730 
  10   2.0000      -0.206174        -5.6103 
  11   2.0000      -0.169142        -4.6026 
  12   2.0000      -0.146505        -3.9866 
  13   2.0000      -0.032342        -0.8801 
  14   2.0000      -0.014320        -0.3897 
  15   2.0000      -0.010024        -0.2728 
  16   0.0000       0.224612         6.1120 
  17   0.0000       0.246030         6.6948 
  18   0.0000       0.290406         7.9023 
  19   0.0000       0.314120         8.5476 
  20   0.0000       0.327547         8.9130 
  21   0.0000       0.359375         9.7791 
  22   0.0000       0.410832        11.1793 
  23   0.0000       0.411537        11.1985 
  24   0.0000       0.429056        11.6752 
  25   0.0000       0.464082        12.6283 
  26   0.0000       0.520135        14.1536 
*Only the first 10 virtual orbitals were printed.

                    ********************************
                    * MULLIKEN POPULATION ANALYSIS *
                    ********************************

-----------------------
MULLIKEN ATOMIC CHARGES
-----------------------
   0 O :   -0.567210
   1 C :    0.314362
   2 O :   -0.562198
   3 C :   -0.336015
   4 H :    0.051490
   5 H :    0.051722
   6 H :    0.047849
Sum of atomic charges:   -1.0000000

--------------------------------
MULLIKEN REDUCED ORBITAL CHARGES
--------------------------------
  0 O s       :     3.791549  s :     3.791549
      pz      :     1.652875  p :     4.745505
      px      :     1.574858
      py      :     1.517772
      dz2     :     0.003508  d :     0.028339
      dxz     :     0.004914
      dyz     :     0.003957
      dx2y2   :     0.007584
      dxy     :     0.008376
      f0      :     0.000174  f :     0.001816
      f+1     :     0.000190
      f-1     :     0.000161
      f+2     :     0.000078
      f-2     :     0.000346
      f+3     :     0.000445
      f-3     :     0.000422

  1 C s       :     2.985728  s :     2.985728
      pz      :     0.849334  p :     2.446556
      px      :     0.756058
      py      :     0.841163
      dz2     :     0.027185  d :     0.228420
      dxz     :     0.055742
      dyz     :     0.027308
      dx2y2   :     0.061279
      dxy     :     0.056906
      f0      :     0.001945  f :     0.024934
      f+1     :     0.004385
      f-1     :     0.001597
      f+2     :     0.003007
      f-2     :     0.003662
      f+3     :     0.003974
      f-3     :     0.006364

  2 O s       :     3.793277  s :     3.793277
      pz      :     1.623247  p :     4.738683
      px      :     1.402751
      py      :     1.712685
      dz2     :     0.004012  d :     0.028417
      dxz     :     0.008260
      dyz     :     0.001247
      dx2y2   :     0.007823
      dxy     :     0.007076
      f0      :     0.000149  f :     0.001821
      f+1     :     0.000379
      f-1     :     0.000019
      f+2     :     0.000342
      f-2     :     0.000160
      f+3     :     0.000376
      f-3     :     0.000397

  3 C s       :     3.185001  s :     3.185001
      pz      :     1.048806  p :     3.102971
      px      :     1.023996
      py      :     1.030169
      dz2     :     0.011669  d :     0.044614
      dxz     :     0.006708
      dyz     :     0.007011
      dx2y2   :     0.005912
      dxy     :     0.013314
      f0      :     0.000238  f :     0.003428
      f+1     :     0.000149
      f-1     :     0.000938
      f+2     :     0.000483
      f-2     :     0.000843
      f+3     :     0.000223
      f-3     :     0.000554

  4 H s       :     0.926008  s :     0.926008
      pz      :     0.010356  p :     0.022501
      px      :     0.005373
      py      :     0.006772

  5 H s       :     0.925843  s :     0.925843
      pz      :     0.005882  p :     0.022435
      px      :     0.010243
      py      :     0.006310

  6 H s       :     0.929939  s :     0.929939
      pz      :     0.005196  p :     0.022212
      px      :     0.008482
      py      :     0.008535



                     *******************************
                     * LOEWDIN POPULATION ANALYSIS *
                     *******************************

----------------------
LOEWDIN ATOMIC CHARGES
----------------------
   0 O :   -0.112784
   1 C :   -0.725944
   2 O :   -0.108627
   3 C :   -0.349497
   4 H :    0.102236
   5 H :    0.100975
   6 H :    0.093640

-------------------------------
LOEWDIN REDUCED ORBITAL CHARGES
-------------------------------
  0 O s       :     3.431360  s :     3.431360
      pz      :     1.545753  p :     4.614672
      px      :     1.562126
      py      :     1.506793
      dz2     :     0.007368  d :     0.061416
      dxz     :     0.009043
      dyz     :     0.009400
      dx2y2   :     0.014731
      dxy     :     0.020874
      f0      :     0.000538  f :     0.005337
      f+1     :     0.000536
      f-1     :     0.000433
      f+2     :     0.000205
      f-2     :     0.001024
      f+3     :     0.001270
      f-3     :     0.001331

  1 C s       :     2.785016  s :     2.785016
      pz      :     0.865570  p :     2.740803
      px      :     0.975235
      py      :     0.899998
      dz2     :     0.131326  d :     1.040981
      dxz     :     0.225804
      dyz     :     0.139304
      dx2y2   :     0.274553
      dxy     :     0.269994
      f0      :     0.011761  f :     0.159145
      f+1     :     0.029554
      f-1     :     0.009222
      f+2     :     0.020553
      f-2     :     0.022457
      f+3     :     0.023485
      f-3     :     0.042113

  2 O s       :     3.431462  s :     3.431462
      pz      :     1.531233  p :     4.610429
      px      :     1.491619
      py      :     1.587577
      dz2     :     0.007494  d :     0.061402
      dxz     :     0.018674
      dyz     :     0.002223
      dx2y2   :     0.018775
      dxy     :     0.014236
      f0      :     0.000517  f :     0.005334
      f+1     :     0.000930
      f-1     :     0.000044
      f+2     :     0.001129
      f-2     :     0.000416
      f+3     :     0.001182
      f-3     :     0.001116

  3 C s       :     2.881243  s :     2.881243
      pz      :     1.078876  p :     3.216661
      px      :     1.068059
      py      :     1.069726
      dz2     :     0.054830  d :     0.230451
      dxz     :     0.029269
      dyz     :     0.055817
      dx2y2   :     0.023691
      dxy     :     0.066844
      f0      :     0.002400  f :     0.021143
      f+1     :     0.002609
      f-1     :     0.004496
      f+2     :     0.004021
      f-2     :     0.002770
      f+3     :     0.001735
      f-3     :     0.003112

  4 H s       :     0.836398  s :     0.836398
      pz      :     0.028015  p :     0.061366
      px      :     0.014618
      py      :     0.018734

  5 H s       :     0.837677  s :     0.837677
      pz      :     0.015837  p :     0.061348
      px      :     0.028728
      py      :     0.016783

  6 H s       :     0.845079  s :     0.845079
      pz      :     0.013944  p :     0.061281
      px      :     0.023790
      py      :     0.023546



                      *****************************
                      * MAYER POPULATION ANALYSIS *
                      *****************************

  NA   - Mulliken gross atomic population
  ZA   - Total nuclear charge
  QA   - Mulliken gross atomic charge
  VA   - Mayer's total valence
  BVA  - Mayer's bonded valence
  FA   - Mayer's free valence

  ATOM       NA         ZA         QA         VA         BVA        FA
  0 O      8.5672     8.0000    -0.5672     1.8395     1.8395     0.0000
  1 C      5.6856     6.0000     0.3144     4.5502     4.5502    -0.0000
  2 O      8.5622     8.0000    -0.5622     1.8524     1.8524    -0.0000
  3 C      6.3360     6.0000    -0.3360     3.6855     3.6855    -0.0000
  4 H      0.9485     1.0000     0.0515     0.9919     0.9919    -0.0000
  5 H      0.9483     1.0000     0.0517     0.9940     0.9940     0.0000
  6 H      0.9522     1.0000     0.0478     1.0025     1.0025     0.0000

  Mayer bond orders larger than 0.100000
B(  0-O ,  1-C ) :   1.8144 B(  1-C ,  2-O ) :   1.8311 B(  1-C ,  3-C ) :   0.9007 
B(  3-C ,  4-H ) :   0.9684 B(  3-C ,  5-H ) :   0.9677 B(  3-C ,  6-H ) :   0.9610 


-------
TIMINGS
-------

Total SCF time: 0 days 0 hours 0 min 35 sec 

Total time                  ....      35.927 sec
Sum of individual times     ....      35.273 sec  ( 98.2%)

SCF preparation             ....       1.362 sec  (  3.8%)
Fock matrix formation       ....      23.268 sec  ( 64.8%)
  Startup                   ....       0.925 sec  (  4.0% of F)
  Split-RI-J                ....       2.938 sec  ( 12.6% of F)
  Chain of spheres X        ....       9.902 sec  ( 42.6% of F)
  XC integration            ....       6.280 sec  ( 27.0% of F)
    XC Preparation          ....       0.000 sec  (  0.0% of XC)
    Basis function eval.    ....       0.738 sec  ( 11.8% of XC)
    Density eval.           ....       1.375 sec  ( 21.9% of XC)
    XC-Functional eval.     ....       0.638 sec  ( 10.2% of XC)
    XC-Potential eval.      ....       1.580 sec  ( 25.2% of XC)
Diagonalization             ....       0.000 sec  (  0.0%)
Density matrix formation    ....       2.593 sec  (  7.2%)
Total Energy calculation    ....       0.694 sec  (  1.9%)
Population analysis         ....       0.170 sec  (  0.5%)
Orbital Transformation      ....       0.162 sec  (  0.5%)
Orbital Orthonormalization  ....       0.000 sec  (  0.0%)
DIIS solution               ....       6.721 sec  ( 18.7%)
SOSCF solution              ....       0.303 sec  (  0.8%)
Finished LeanSCF after  36.0 sec

Maximum memory used throughout the entire LEANSCF-calculation: 12.0 MB


-------------------------------------------------------------------------------
                          DFT DISPERSION CORRECTION                            
                                                                               
                              DFTD3 V3.1  Rev 1                                
                          USING Becke-Johnson damping                          
-------------------------------------------------------------------------------
The R2SCANh functional is recognized
Active option DFTDOPT                   ...         4   

molecular C6(AA) [au] = 469.208565 


            DFT-D V3
 parameters
 s6 scaling factor         :     1.0000 
 a1 scaling factor         :     0.4709 
 s8 scaling factor         :     1.1236 
 a2 scaling factor         :     5.9157 
 ad hoc parameters k1-k3   :    16.0000     1.3333    -4.0000 

 Edisp/kcal,au: -0.596870719761  -0.000951173936 
 E6   /kcal   :  -0.440600168 
 E8   /kcal   :  -0.156270552 
 % E8         :  26.181641523 

-------------------------   ----------------
Dispersion correction           -0.000951174
-------------------------   ----------------


-------------------------   --------------------
FINAL SINGLE POINT ENERGY      -228.482301642334
-------------------------   --------------------



           ************************************************************
           *        Program running with 4 parallel MPI-processes     *
           *              working on a common directory               *
           ************************************************************

------------------------------------------------------------------------------
                              ORCA PROPERTY CALCULATIONS
------------------------------------------------------------------------------

GBWName                                 ... CS_PdOAc_005_sp_02.gbw
Number of atoms                         ...      7
Number of basis functions               ...    142
Max core memory                         ...   3500 MB

Electric properties:
Dipole moment                           ... YES
Quadrupole moment                       ...  NO
Static polarizability (Dipole/Dipole)   ...  NO
Static polarizability (Dipole/Quad.)    ...  NO
Static polarizability (Quad./Quad.)     ...  NO
Static polarizability (Velocity)        ...  NO

Atomic electric properties:
Dipole moment                           ...  NO
Quadrupole moment                       ...  NO
Static polarizability                   ...  NO

Choice of electric origin               ... Center of mass
Position of electric origin             ...     1.642336    -1.537230     0.946322

General magnetic properties:
Magnetizability                         ...  NO

EPR properties:
g-Tensor (aka g-matrix)                 ...  NO
Zero-Field splitting spin-orbit         ...  NO
Zero-field splitting spin-spin          ...  NO
Hyperfine couplings                     ...  NO (   0 nuclei)
Quadrupole couplings                    ...  NO (   0 nuclei)
Contact density                         ...  NO (   0 nuclei)

NMR properties:
Chemical shifts                         ...  NO (   0 nuclei)
Spin-rotation constants                 ...  NO (   0 nuclei)
Spin-spin couplings                     ...  NO (   0 nuclei,    0 pairs)

Choice of magnetic origin               ... GIAO
Position of magnetic origin             ...     0.000000     0.000000     0.000000

Properties with geometric perturbations:
SCF Hessian                             ...  NO
IR spectrum                             ...  NO
VCD spectrum                            ...  NO
X-ray spectroscopy properties:
SCF XES/XAS/RIXS spectra                ...  NO


-------------
DIPOLE MOMENT
-------------

Method             : SCF
Type of density    : Electron Density
Multiplicity       :   1
Irrep              :   0
Energy             :  -228.4813504683987730 Eh
Relativity type    : 
Basis              : AO
                                X                 Y                 Z
Electronic contribution:      1.179797474       2.567179373      -2.781449673
Nuclear contribution   :     -1.505608059      -3.323413584       3.587294834
                        -----------------------------------------
Total Dipole Moment    :     -0.325810585      -0.756234211       0.805845161
                        -----------------------------------------
Magnitude (a.u.)       :      1.152141113
Magnitude (Debye)      :      2.928509976



--------------------
Rotational spectrum 
--------------------
 
Rotational constants in cm-1:             0.383304             0.332506             0.184215 
Rotational constants in MHz :         11491.168183          9968.291451          5522.636795 

Dipole components along the rotational axes: 
x,y,z [a.u.] :    -1.149004     0.084948     0.001645 
x,y,z [Debye]:    -2.920536     0.215920     0.004182 

 

Dipole moment calculation done in   0.1 sec 

Maximum memory used throughout the entire PROP-calculation: 6.3 MB

--------------------------------
SUGGESTED CITATIONS FOR THIS RUN
--------------------------------

Below you find a list of papers that are relevant to this ORCA run
We neither can nor want to force you to cite these papers, but we appreciate if you do
You receive ORCA, which is the product of decades of hard work by many enthusiastic individuals, for free
The only thing we kindly ask in return is that you cite our papers,
We deeply appreciate it, if you show your appreciation for ORCA by not just citing the generic ORCA reference.

Please note that relegating all ORCA citations to the supporting information does *not* help us.
SI sections are not indexed - citations you put there will not count into any citation statistics
But we need these citations in order to attract the funding resources that allow us to do what we are doing

Therefore, if you are a happy ORCA user, please consider citing a few of the papers listed below in the main body of your paper

In addition to the list printed below, the program has created the file CS_PdOAc_005_sp_02.bibtex that contains the list in bibtex format
You can import this file easily into all common literature databanks and citation aid programs


List of essential papers. We consider these as the minimum necessary citations

  1. Neese,F.
     Software update: the ORCA program system, version 5.0
     WIRES Comput. Molec. Sci., 2022 12(1)e1606
     doi.org/10.1002/wcms.1606

List of papers to cite with high priority. The work reported in these papers was absolutely
necessary for this run to complete.
Our perspective: the developers of density functionals and basis sets usually get cited in chemistry papers
Good! But without the algorithms to do something with them, the functionals or basis sets would not do anything.
Hence, in our opinion, the algorithm design and method developments papers are equally worthy of getting cited

  1. Neese,F.
     An improvement of the resolution of the identity approximation for the formation of the Coulomb matrix
     J. Comp. Chem., 2003 24(14)1740-1747
     doi.org/10.1002/jcc.10318
  2. Neese,F.; Wennmohs,F.; Hansen,A.; Becker,U.
     Efficient, approximate and parallel Hartree-Fock and hybrid DFT calculations. A 'chain-of-spheres' algorithm for the Hartree-Fock exchange
     Chem. Phys., 2009 356(1-3)98-109
     doi.org/10.1016/j.chemphys.2008.10.036
  3. Helmich-Paris,B.; de Souza,B.; Neese,F.; Izsák,R.
     An improved chain of spheres for exchange algorithm
     J. Chem. Phys., 2021 155 104109
     doi.org/doi: 10.1063/5.0058766.
  4. Neese,F.
     The SHARK Integral Generation and Digestion System
     J. Comp. Chem., 2022  1-16
     doi.org/10.1002/jcc.26942
  5. Lehtola,S.; Steigemann,C.; Oliveira,M.; Marques,M.
     Recent developments in Libxc - A comprehensive library of functionals for density functional theory
     Software X, 2018 7 
     doi.org/10.1016/j.softx.2017.11.002
  6. Grimme,S.; Antony,J.; Ehrlich,S.; Krieg,H.
     A consistent and accurate ab initio parametrization of density functional dispersion correction (DFT-D) for the 94 elements H-Pu
     J. Chem. Phys., 2010 132 154104-XXXX
     doi.org/10.1063/1.3382344
  7. Grimme,S.; Ehrlich,S.; Goerigk,L.
     Effect of the damping function in dispersion corrected density functional theory
     J. Comput. Chem., 2011 32(7)1456-1465
     doi.org/10.1002/jcc.21759
  8. Bursch,M.; Neugebauer,H.; Ehlert,S.; Grimme,S.
     Dispersion corrected r2SCAN based global hybrid functionals: r2SCANh, r2SCAN0, and r2SCAN50
     J. Phys. Chem., 2022 156(13)134105
     doi.org/10.1063/5.0086040

List of suggested additional citations. These are papers that are important in the 'surrounding' of 
of this run, or papers that preceded the highly important papers. If you like your results we are grateful for a citation.

  1. Izsak,R.; Neese,F.
     An overlap fitted chain of spheres exchange method
     J. Chem. Phys., 2011 135 144105
     doi.org/10.1063/1.3646921
  2. Izsak,R.; Hansen,A.; Neese,F.
     The resolution of identity and chain of spheres approximations for the LPNO-CCSD singles Fock term
     Molec. Phys., 2012 110 2413-2417
     doi.org/10.1080/00268976.2012.687466
  3. Neese,F.
     The ORCA program system
     WIRES Comput. Molec. Sci., 2012 2(1)73-78
     doi.org/10.1002/wcms.81
  4. Izsak,R.; Neese,F.; Klopper,W.
     Robust fitting techniques in the chain of spheres approximation to the Fock exchange: The role of the complementary space
     J. Chem. Phys., 2013 139 
     doi.org/10.1063/1.4819264
  5. Neese,F.
     Software update: the ORCA program system, version 4.0
     WIRES Comput. Molec. Sci., 2018 8(1)1-6
     doi.org/10.1002/wcms.1327
  6. Neese,F.; Wennmohs,F.; Becker,U.; Riplinger,C.
     The ORCA quantum chemistry program package
     J. Chem. Phys., 2020 152 Art. No. L224108
     doi.org/10.1063/5.0004608
  7. Wittmann,L.; Neugebauer,H.; Grimme,S.; Bursch,M.
     Dispersion-corrected r2SCAN based double-hybrid functionals
     J. Chem. Phys., 2023 159(22)224103
     doi.org/10.1063/5.0174988

List of optional additional citations

  1. Neese,F.
     Approximate second-order SCF convergence for spin unrestricted wavefunctions
     Chem. Phys. Lett., 2000 325(1-3)93-98
     doi.org/10.1016/s0009-2614(00)00662-x

Timings for individual modules:

Sum of individual times          ...       44.061 sec (=   0.734 min)
Startup calculation              ...        2.840 sec (=   0.047 min)   6.4 %
SCF iterations                   ...       39.449 sec (=   0.657 min)  89.5 %
Property calculations            ...        1.772 sec (=   0.030 min)   4.0 %
                             ****ORCA TERMINATED NORMALLY****
TOTAL RUN TIME: 0 days 0 hours 0 minutes 46 seconds 328 msec
