
                                 *****************
                                 * O   R   C   A *
                                 *****************

                                            #,                                       
                                            ###                                      
                                            ####                                     
                                            #####                                    
                                            ######                                   
                                           ########,                                 
                                     ,,################,,,,,                         
                               ,,#################################,,                 
                          ,,##########################################,,             
                       ,#########################################, ''#####,          
                    ,#############################################,,   '####,        
                  ,##################################################,,,,####,       
                ,###########''''           ''''###############################       
              ,#####''   ,,,,##########,,,,          '''####'''          '####       
            ,##' ,,,,###########################,,,                        '##       
           ' ,,###''''                  '''############,,,                           
         ,,##''                                '''############,,,,        ,,,,,,###''
      ,#''                                            '''#######################'''  
     '                                                          ''''####''''         
             ,#######,   #######,   ,#######,      ##                                
            ,#'     '#,  ##    ##  ,#'     '#,    #''#        ,####,   ,####,        
            ##       ##  ##   ,#'  ##            #'  '#       #'       #'  '#        
            ##       ##  #######   ##           ,######,      #####,   #    #        
            '#,     ,#'  ##    ##  '#,     ,#' ,#      #,     #,   #   #,  ,#        
             '#######'   ##     ##  '#######'  #'      '#     '####' # '####'        



                #########################################################
                #                        -***-                          #
                #          Department of theory and spectroscopy        #
                #                                                       #
                #                      Frank Neese                      #
                #                                                       #
                #     Directorship, Architecture, Infrastructure        #
                #                    SHARK, DRIVERS                     #
                #        Core code/Algorithms in most modules           #
                #                                                       #
                #        Max Planck Institute fuer Kohlenforschung      #
                #                Kaiser Wilhelm Platz 1                 #
                #                 D-45470 Muelheim/Ruhr                 #
                #                      Germany                          #
                #                                                       #
                #                  All rights reserved                  #
                #                        -***-                          #
                #########################################################


                         Program Version 6.0.0  -   RELEASE  -


 With contributions from (in alphabetic order):
   Daniel Aravena         : Magnetic Suceptibility
   Michael Atanasov       : Ab Initio Ligand Field Theory (pilot matlab implementation)
   Alexander A. Auer      : GIAO ZORA, VPT2 properties, NMR spectrum
   Ute Becker             : All parallelization in ORCA, NUMFREQ, NUMCALC
   Giovanni Bistoni       : ED, misc. LED, open-shell LED, HFLD
   Martin Brehm           : Molecular dynamics
   Dmytro Bykov           : pre 5.0 version of the SCF Hessian
   Marcos Casanova-Páez   : Triplet and SCS-CIS(D). UHF-(DLPNO)-IP/EA/STEOM-CCSD. UHF-CVS-IP/STEOM-CCSD
   Vijay G. Chilkuri      : MRCI spin determinant printing, contributions to CSF-ICE
   Pauline Colinet        : FMM embedding
   Dipayan Datta          : RHF DLPNO-CCSD density
   Achintya Kumar Dutta   : EOM-CC, STEOM-CC
   Nicolas Foglia         : Exact transition moments, OPA infrastructure, MCD improvements
   Dmitry Ganyushin       : Spin-Orbit,Spin-Spin,Magnetic field MRCI
   Miquel Garcia          : C-PCM and meta-GGA Hessian, CCSD/C-PCM, Gaussian charge scheme
   Tiago L. C. Gouveia    : GS-ROHF, GS-ROCIS
   Yang Guo               : DLPNO-NEVPT2, F12-NEVPT2, CIM, IAO-localization
   Andreas Hansen         : Spin unrestricted coupled pair/coupled cluster methods
   Ingolf Harden          : AUTO-CI MPn and infrastructure 
   Benjamin Helmich-Paris : MC-RPA, TRAH-(SCF,CASSCF), AVAS, COSX integrals, SCF dyn. polar.
   Lee Huntington         : MR-EOM, pCC
   Robert Izsak           : Overlap fitted RIJCOSX, COSX-SCS-MP3, EOM
   Riya Kayal             : Wick's Theorem for AUTO-CI, AUTO-CI UHF-CCSDT
   Emily Kempfer          : AUTO-CI, RHF CISDT and CCSDT
   Christian Kollmar      : KDIIS, OOCD, Brueckner-CCSD(T), CCSD density, CASPT2, CASPT2-K, improved NEVPT2
   Axel Koslowski         : Symmetry handling
   Simone Kossmann        : Meta GGA functionals, TD-DFT gradient, OOMP2, (MP2 Hessian; deprecated post 5.0)
   Lucas Lang             : DCDCAS
   Marvin Lechner         : AUTO-CI (C++ implementation), FIC-MRCC
   Spencer Leger          : CASSCF response
   Dagmar Lenk            : GEPOL surface, SMD, ORCA-2-JSON
   Dimitrios Liakos       : Extrapolation schemes; Compound Job, initial MDCI parallelization
   Dimitrios Manganas     : Further ROCIS development; embedding schemes. LFT, Crystal Embedding
   Dimitrios Pantazis     : SARC Basis sets
   Anastasios Papadopoulos: AUTO-CI, single reference methods and gradients
   Taras Petrenko         : pre 6.0 DFT Hessian and TD-DFT gradient, (ASA, deprecated), ECA, 1-Electron XAS/XES, NRVS
   Peter Pinski           : DLPNO-MP2, DLPNO-MP2 Gradient
   Christoph Reimann      : Effective Core Potentials
   Marius Retegan         : Local ZFS, SOC
   Christoph Riplinger    : Optimizer, TS searches, QM/MM, DLPNO-CCSD(T), (RO)-DLPNO pert. Triples
   Michael Roemelt        : Original ROCIS implementation
   Masaaki Saitow         : Open-shell DLPNO-CCSD energy and density
   Barbara Sandhoefer     : DKH picture change effects
   Kantharuban Sivalingam : CASSCF convergence/infrastructure, NEVPT2 and variants, FIC-MRCI
   Bernardo de Souza      : ESD, SOC TD-DFT
   Georgi Stoychev        : AutoAux, RI-MP2 NMR, DLPNO-MP2 response, X2C
   Van Anh Tran           : RI-MP2 g-tensors
   Willem Van den Heuvel  : Paramagnetic NMR
   Zikuan Wang            : NOTCH, Electric field optimization 
   Frank Wennmohs         : Technical directorship and infrastructure
   Hang Xu                : AUTO-CI-Response properties 


 We gratefully acknowledge several colleagues who have allowed us to
 interface, adapt or use parts of their codes:
   Stefan Grimme, W. Hujo, H. Kruse, P. Pracht,  : VdW corrections, initial TS optimization,
                  C. Bannwarth, S. Ehlert,         DFT functionals, gCP, sTDA/sTD-DF
                  L. Wittmann, M. Mueller
   Ed Valeev, F. Pavosevic, A. Kumar             : LibInt (2-el integral package), F12 methods
   Garnet Chan, S. Sharma, J. Yang, R. Olivares  : DMRG
   Ulf Ekstrom                                   : XCFun DFT Library
   Mihaly Kallay                                 : mrcc  (arbitrary order and MRCC methods)
   Frank Weinhold                                : gennbo (NPA and NBO analysis)
   Simon Mueller                                 : openCOSMO-RS
   Christopher J. Cramer and Donald G. Truhlar   : smd solvation model
   Lars Goerigk                                  : TD-DFT with DH, B97 family of functionals
   V. Asgeirsson, H. Jonsson                     : NEB implementation
   FAccTs GmbH                                   : IRC, NEB, NEB-TS, DLPNO-Multilevel, CI-OPT
                                                   MM, QMMM, 2- and 3-layer-ONIOM, Crystal-QMMM,
                                                   LR-CPCM, SF, NACMEs, symmetry and pop. for TD-DFT,
                                                   nearIR, NL-DFT gradient (VV10), updates on ESD,
                                                   ML-optimized integration grids, MBIS, APM,
                                                   GOAT, DOCKER, SOLVATOR, interface openCOSMO-RS
   S Lehtola, MJT Oliveira, MAL Marques          : LibXC Library
   Liviu Ungur et al                             : ANISO software


 Your calculation uses the libint2 library for the computation of 2-el integrals
 For citations please refer to: http://libint.valeyev.net

 Your ORCA version has been built with support for libXC version: 6.2.2
 For citations please refer to: https://libxc.gitlab.io

 This ORCA versions uses:
   CBLAS   interface :  Fast vector & matrix operations
   LAPACKE interface :  Fast linear algebra routines
   SCALAPACK package :  Parallel linear algebra routines
   Shared memory     :  Shared parallel matrices
   BLAS/LAPACK       :  OpenBLAS 0.3.27  USE64BITINT DYNAMIC_ARCH NO_AFFINITY Sandybridge SINGLE_THREADED
        Core in use  :  Sandybridge
   Copyright (c) 2011-2014, The OpenBLAS Project


NOTE: MaxCore=3500 MB was set to SCF,MP2,MDCI,CIPSI,MRCI and CIS
      => If you want to overwrite this, your respective input block should be placed after the MaxCore statement
Your calculation utilizes the atom-pairwise dispersion correction
with the Becke-Johnson damping scheme (D3BJ)


Warning: RI is on but no J-basis has been assigned. Assigning Def2/J (nothing to worry about!)
================================================================================

----- Orbital basis set information -----
Your calculation utilizes the basis: def2-SV(P)
   F. Weigend and R. Ahlrichs, Phys. Chem. Chem. Phys. 7, 3297 (2005).

----- AuxJ basis set information -----
Your calculation utilizes the auxiliary basis: def2/J
   F. Weigend, Phys. Chem. Chem. Phys. 8, 1057 (2006).

================================================================================
                                        WARNINGS
                       Please study these warnings very carefully!
================================================================================


================================================================================
                                       INPUT FILE
================================================================================
NAME = CS_PdOAc_009_freq_01.inp
|  1> !PBE0 def2-SV(p) freq d3 TightSCF SlowConv RIJCOSX defgrid2
|  2> 
|  3> %pal
|  4> nprocs 4
|  5> nprocs_group 2
|  6> end
|  7> 
|  8> %scf
|  9> MaxIter 1500
| 10> end
| 11> 
| 12> %maxcore 3500
| 13> 
| 14>  
| 15> 
| 16> * xyz 0 1
| 17>   C           0.00000004423337      0.18876599610817     -0.91953307112615
| 18>   C          -0.00000000137809      0.18876603703724      0.41247447844015
| 19>   H          -0.00000002932142      1.12197205247268     -1.49640319634758
| 20>   H          -0.00000000433371     -0.74443986558511     -1.49640358730746
| 21>   H           0.00000000789379      1.12197202144349      0.98934463796064
| 22>   H          -0.00000001709394     -0.74443978547648      0.98934493238040
| 23> *
| 24> 
| 25>                          ****END OF INPUT****
================================================================================

                       ****************************
                       * Single Point Calculation *
                       ****************************

---------------------------------
CARTESIAN COORDINATES (ANGSTROEM)
---------------------------------
  C      0.000000    0.188766   -0.919533
  C     -0.000000    0.188766    0.412474
  H     -0.000000    1.121972   -1.496403
  H     -0.000000   -0.744440   -1.496404
  H      0.000000    1.121972    0.989345
  H     -0.000000   -0.744440    0.989345

----------------------------
CARTESIAN COORDINATES (A.U.)
----------------------------
  NO LB      ZA    FRAG     MASS         X           Y           Z
   0 C     6.0000    0    12.011    0.000000    0.356716   -1.737666
   1 C     6.0000    0    12.011   -0.000000    0.356716    0.779464
   2 H     1.0000    0     1.008   -0.000000    2.120220   -2.827792
   3 H     1.0000    0     1.008   -0.000000   -1.406787   -2.827793
   4 H     1.0000    0     1.008    0.000000    2.120220    1.869590
   5 H     1.0000    0     1.008   -0.000000   -1.406787    1.869591

--------------------------------
INTERNAL COORDINATES (ANGSTROEM)
--------------------------------
 C      0   0   0     0.000000000000     0.00000000     0.00000000
 C      1   0   0     1.332007549566     0.00000000     0.00000000
 H      1   2   0     1.097111063206   121.72267316     0.00000000
 H      1   2   3     1.097111103188   121.72269940   180.00000191
 H      2   1   3     1.097111020033   121.72268019     0.00000000
 H      2   1   3     1.097111037135   121.72269419   179.99999172

---------------------------
INTERNAL COORDINATES (A.U.)
---------------------------
 C      0   0   0     0.000000000000     0.00000000     0.00000000
 C      1   0   0     2.517129476996     0.00000000     0.00000000
 H      1   2   0     2.073239447954   121.72267316     0.00000000
 H      1   2   3     2.073239523509   121.72269940   180.00000191
 H      2   1   3     2.073239366368   121.72268019     0.00000000
 H      2   1   3     2.073239398687   121.72269419   179.99999172

---------------------
BASIS SET INFORMATION
---------------------
There are 2 groups of distinct atoms

 Group   1 Type C   : 7s4p1d contracted to 3s2p1d pattern {511/31/1}
 Group   2 Type H   : 4s contracted to 2s pattern {31}

Atom   0C    basis set group =>   1
Atom   1C    basis set group =>   1
Atom   2H    basis set group =>   2
Atom   3H    basis set group =>   2
Atom   4H    basis set group =>   2
Atom   5H    basis set group =>   2
---------------------------------
AUXILIARY/J BASIS SET INFORMATION
---------------------------------
There are 2 groups of distinct atoms

 Group   1 Type C   : 12s5p4d2f1g contracted to 6s4p3d1f1g pattern {711111/2111/211/2/1}
 Group   2 Type H   : 5s2p1d contracted to 3s1p1d pattern {311/2/1}

Atom   0C    basis set group =>   1
Atom   1C    basis set group =>   1
Atom   2H    basis set group =>   2
Atom   3H    basis set group =>   2
Atom   4H    basis set group =>   2
Atom   5H    basis set group =>   2


           ************************************************************
           *        Program running with 4 parallel MPI-processes     *
           *              working on a common directory               *
           ************************************************************
------------------------------------------------------------------------------
                             ORCA STARTUP CALCULATIONS
                           -- RI-GTO INTEGRALS CHOSEN --
------------------------------------------------------------------------------
------------------------------------------------------------------------------
                   ___                                                        
                  /   \      - P O W E R E D   B Y -                         
                 /     \                                                     
                 |  |  |   _    _      __       _____    __    __             
                 |  |  |  | |  | |    /  \     |  _  \  |  |  /  |          
                  \  \/   | |  | |   /    \    | | | |  |  | /  /          
                 / \  \   | |__| |  /  /\  \   | |_| |  |  |/  /          
                |  |  |   |  __  | /  /__\  \  |    /   |      \           
                |  |  |   | |  | | |   __   |  |    \   |  |\   \          
                \     /   | |  | | |  |  |  |  | |\  \  |  | \   \       
                 \___/    |_|  |_| |__|  |__|  |_| \__\ |__|  \__/        
                                                                              
                      - O R C A' S   B I G   F R I E N D -                    
                                      &                                       
                       - I N T E G R A L  F E E D E R -                       
                                                                              
 v1 FN, 2020, v2 2021, v3 2022-2024                                           
------------------------------------------------------------------------------


----------------------
SHARK INTEGRAL PACKAGE
----------------------

Number of atoms                             ...      6
Number of basis functions                   ...     36
Number of shells                            ...     20
Maximum angular momentum                    ...      2
Integral batch strategy                     ... SHARK/LIBINT Hybrid
RI-J (if used) integral strategy            ... SPLIT-RIJ (Revised 2003 algorithm where possible)
Printlevel                                  ...      1
Contraction scheme used                     ... SEGMENTED contraction
Prescreening option                         ... SCHWARTZ
   Thresh                                   ... 2.500e-11
   Tcut                                     ... 2.500e-12
   Tpresel                                  ... 2.500e-12 
Coulomb Range Separation                    ... NOT USED
Exchange Range Separation                   ... NOT USED
Multipole approximations                    ... NOT USED
Finite Nucleus Model                        ... NOT USED
CABS basis                                  ... NOT available
Auxiliary Coulomb fitting basis             ... AVAILABLE
   # of basis functions in Aux-J            ...    142
   # of shells in Aux-J                     ...     50
   Maximum angular momentum in Aux-J        ...      4
Auxiliary J/K fitting basis                 ... NOT available
Auxiliary Correlation fitting basis         ... NOT available
Auxiliary 'external' fitting basis          ... NOT available

Checking pre-screening integrals            ... done (  0.0 sec) Dimension = 20
Check shell pair data                       ... done (  0.0 sec)
Shell pair information
Shell pair cut-off parameter TPreSel        ...   2.5e-12
Total number of shell pairs                 ...       210
Shell pairs after pre-screening             ...       210
Total number of primitive shell pairs       ...       858
Primitive shell pairs kept                  ...       765
          la=0 lb=0:    105 shell pairs
          la=1 lb=0:     56 shell pairs
          la=1 lb=1:     10 shell pairs
          la=2 lb=0:     28 shell pairs
          la=2 lb=1:      8 shell pairs
          la=2 lb=2:      3 shell pairs

Calculating one electron integrals          ... done (  0.0 sec)
Calculating RI/J V-Matrix + Cholesky decomp.... done (  0.0 sec)
Calculating Nuclear repulsion               ... done (  0.0 sec) ENN=     33.188601382088 Eh

Diagonalization of the overlap matrix:
Smallest eigenvalue                        ... 4.688e-03
Time for diagonalization                   ...    0.000 sec
Threshold for overlap eigenvalues          ... 1.000e-07
Number of eigenvalues below threshold      ... 0
Time for construction of square roots      ...    0.015 sec
Total time needed                          ...    0.044 sec

-------------------
DFT GRID GENERATION
-------------------

General Integration Accuracy     IntAcc      ... 4.388
Radial Grid Type                 RadialGrid  ... OptM3 with GC (2021)
Angular Grid (max. ang.)         AngularGrid ... 4 (Lebedev-302)
Angular grid pruning method      GridPruning ... 4 (adaptive)
Weight generation scheme         WeightScheme... mBecke (2022)
Basis function cutoff            BFCut       ... 1.0000e-11
Integration weight cutoff        WCut        ... 1.0000e-14
Partially contracted basis set               ... off
Rotationally invariant grid construction     ... off
Angular grids for H and He will be reduced by one unit

Total number of grid points                  ...    25292
Total number of batches                      ...      398
Average number of points per batch           ...       63
Average number of grid points per atom       ...     4215

--------------------
COSX GRID GENERATION
--------------------

GRIDX 1
-------
General Integration Accuracy     IntAcc      ... 3.816
Radial Grid Type                 RadialGrid  ... OptM3 with GC (2021)
Angular Grid (max. ang.)         AngularGrid ... 1 (Lebedev-50)
Angular grid pruning method      GridPruning ... 4 (adaptive)
Weight generation scheme         WeightScheme... mBecke (2022)
Basis function cutoff            BFCut       ... 1.0000e-11
Integration weight cutoff        WCut        ... 1.0000e-14
Partially contracted basis set               ... on
Rotationally invariant grid construction     ... off
Angular grids for H and He will be reduced by one unit

Total number of grid points                  ...     3280
Total number of batches                      ...       30
Average number of points per batch           ...      109
Average number of grid points per atom       ...      547
UseSFitting                                  ... on

GRIDX 2
-------
General Integration Accuracy     IntAcc      ... 4.020
Radial Grid Type                 RadialGrid  ... OptM3 with GC (2021)
Angular Grid (max. ang.)         AngularGrid ... 2 (Lebedev-110)
Angular grid pruning method      GridPruning ... 4 (adaptive)
Weight generation scheme         WeightScheme... mBecke (2022)
Basis function cutoff            BFCut       ... 1.0000e-11
Integration weight cutoff        WCut        ... 1.0000e-14
Partially contracted basis set               ... on
Rotationally invariant grid construction     ... off
Angular grids for H and He will be reduced by one unit

Total number of grid points                  ...     6904
Total number of batches                      ...       56
Average number of points per batch           ...      123
Average number of grid points per atom       ...     1151
UseSFitting                                  ... on

GRIDX 3
-------
General Integration Accuracy     IntAcc      ... 4.338
Radial Grid Type                 RadialGrid  ... OptM3 with GC (2021)
Angular Grid (max. ang.)         AngularGrid ... 3 (Lebedev-194)
Angular grid pruning method      GridPruning ... 4 (adaptive)
Weight generation scheme         WeightScheme... mBecke (2022)
Basis function cutoff            BFCut       ... 1.0000e-11
Integration weight cutoff        WCut        ... 1.0000e-14
Partially contracted basis set               ... on
Rotationally invariant grid construction     ... off
Angular grids for H and He will be reduced by one unit

Total number of grid points                  ...    15208
Total number of batches                      ...      122
Average number of points per batch           ...      124
Average number of grid points per atom       ...     2535
UseSFitting                                  ... on
Initializing property integral containers    ... done (  0.1 sec)

SHARK setup successfully completed in   1.0 seconds

Maximum memory used throughout the entire STARTUP-calculation: 8.9 MB


           ************************************************************
           *        Program running with 4 parallel MPI-processes     *
           *              working on a common directory               *
           ************************************************************
-------------------------------------------------------------------------------
                                 ORCA GUESS
                   Start orbitals & Density for SCF / CASSCF
-------------------------------------------------------------------------------

------------
SCF SETTINGS
------------
Hamiltonian:
 Density Functional     Method          .... DFT(GTOs)
 Exchange Functional    Exchange        .... PBE
   PBE kappa parameter   XKappa         ....  0.804000
   PBE mue parameter    XMuePBE         ....  0.219520
 Correlation Functional Correlation     .... PBE
   PBE beta parameter  CBetaPBE         ....  0.066725
 LDA part of GGA corr.  LDAOpt          .... PW91-LDA
 Gradients option       PostSCFGGA      .... off
 Hybrid DFT is turned on
   Fraction HF Exchange ScalHFX         ....  0.250000
   Scaling of DF-GGA-X  ScalDFX         ....  0.750000
   Scaling of DF-GGA-C  ScalDFC         ....  1.000000
   Scaling of DF-LDA-C  ScalLDAC        ....  1.000000
   Perturbative correction              ....  0.000000
   NL short-range parameter             ....  6.900000
 RI-approximation to the Coulomb term is turned on
   Number of AuxJ basis functions       .... 142
   RIJ-COSX (HFX calculated with COS-X)).... on


General Settings:
 Integral files         IntName         .... CS_PdOAc_009_freq_01
 Hartree-Fock type      HFTyp           .... RHF
 Total Charge           Charge          ....    0
 Multiplicity           Mult            ....    1
 Number of Electrons    NEL             ....   16
 Basis Dimension        Dim             ....   36
 Nuclear Repulsion      ENuc            ....     33.1886013821 Eh

Convergence Acceleration:
 AO-DIIS                CNVDIIS         .... on
   Start iteration      DIISMaxIt       ....     0
   Startup error        DIISStart       ....  0.200000
   # of expansion vecs  DIISMaxEq       ....     5
   Bias factor          DIISBfac        ....   1.050
   Max. coefficient     DIISMaxC        ....  10.000
 MO-DIIS                CNVKDIIS        .... off
 Trust-Rad. Augm. Hess. CNVTRAH         .... auto
   Auto Start mean grad. ratio tolernc. ....  1.125000
   Auto Start start iteration           ....    50
   Auto Start num. interpolation iter.  ....    10
   Max. Number of Micro iterations      ....    24
   Max. Number of Macro iterations      .... Maxiter - #DIIS iter
   Number of Davidson start vectors     ....     2
   Converg. threshold    (grad. norm)   ....   1.000e-05
   Grad. Scal. Fac. for Micro threshold ....   0.100
   Minimum threshold for Micro iter.    ....   1.000e-02
   NR start threshold (gradient norm)   ....   1.000e-04
   Initial trust radius                 ....   0.400
   Minimum AH scaling param. (alpha)    ....   1.000
   Maximum AH scaling param. (alpha)    .... 1000.000
   Quad. conv. algorithm                .... NR
   White noise on init. David. guess    .... on
   Maximum white noise                  ....   0.010
   Pseudo random numbers                .... off
   Inactive MOs                         .... canonical
   Orbital update algorithm             .... Taylor
   Preconditioner                       .... Diag
   Full preconditioner red. dimension   ....   250
 SOSCF                  CNVSOSCF        .... on
   Start iteration      SOSCFMaxIt      ....   150
   Startup grad/error   SOSCFStart      ....  0.001000
   Hessian update       SOSCFHessUp     .... L-BFGS
 Level Shifting         CNVShift        .... on
   Level shift para.    LevelShift      ....    0.2500
   Turn off err/grad.   ShiftErr        ....    0.0000
 Zerner damping         CNVZerner       .... off
 Static damping         CNVDamp         .... on
   Fraction old density DampFac         ....    0.8500
   Max. Damping (<1)    DampMax         ....    0.9800
   Min. Damping (>=0)   DampMin         ....    0.0000
   Turn off err/grad.   DampErr         ....    0.0300

SCF Procedure:
 Maximum # iterations   MaxIter         ....  1500
 SCF integral mode      SCFMode         .... Direct
   Integral package                     .... SHARK and LIBINT hybrid scheme
 Reset frequency        DirectResetFreq ....    20
 Integral Threshold     Thresh          ....  2.500e-11 Eh
 Primitive CutOff       TCut            ....  2.500e-12 Eh

Convergence Tolerance:
 Convergence Check Mode ConvCheckMode   .... Total+1el-Energy
 Convergence forced     ConvForced      .... 0
 Energy Change          TolE            ....  1.000e-08 Eh
 1-El. energy change                    ....  1.000e-05 Eh
 Orbital Gradient       TolG            ....  1.000e-05
 Orbital Rotation angle TolX            ....  1.000e-05
 DIIS Error             TolErr          ....  5.000e-07

------------------------------
INITIAL GUESS: MODEL POTENTIAL
------------------------------
Loading Hartree-Fock densities                     ... done
Calculating cut-offs                               ... done
Initializing the effective Hamiltonian             ... done
Setting up the integral package (SHARK)            ... done
Starting the Coulomb interaction                   ... done (   0.1 sec)
Making the grid                                    ... done (   0.1 sec)
Mapping shells                                     ... done
Starting the XC term evaluation                    ... done (   0.0 sec)
  promolecular density results
     # of electrons  =     15.999227599
     EX              =    -11.345309442
     EC              =     -0.487589254
     EX+EC           =    -11.832898697
Transforming the Hamiltonian                       ... done (   0.0 sec)
Diagonalizing the Hamiltonian                      ... done (   0.0 sec)
Back transforming the eigenvectors                 ... done (   0.0 sec)
Now organizing SCF variables                       ... done
                      ------------------
                      INITIAL GUESS DONE (   0.4 sec)
                      ------------------
             **** ENERGY FILE WAS UPDATED (CS_PdOAc_009_freq_01.en.tmp) ****
Finished Guess after   0.9 sec
Maximum memory used throughout the entire GUESS-calculation: 5.6 MB


           ************************************************************
           *        Program running with 4 parallel MPI-processes     *
           *              working on a common directory               *
           ************************************************************

-------------------------------------------------------------------------------------------
                                      ORCA LEAN-SCF
                              memory conserving SCF solver
-------------------------------------------------------------------------------------------

----------------------------------------D-I-I-S--------------------------------------------
Iteration    Energy (Eh)           Delta-E    RMSDP     MaxDP     DIISErr   Damp  Time(sec)
-------------------------------------------------------------------------------------------
               ***  Starting incremental Fock matrix formation  ***
    1    -78.3491641377214165     0.00e+00  3.26e-03  2.95e-02  1.49e-01  0.850   1.0
    2    -78.3655748641463816    -1.64e-02  3.21e-03  2.69e-02  1.16e-01  0.850   1.4
                               ***Turning on AO-DIIS***
    3    -78.3770434809550665    -1.15e-02  1.82e-03  1.40e-02  8.41e-02  0.850   1.1
    4    -78.3847176852871996    -7.67e-03  1.25e-03  9.55e-03  6.68e-02  0.850   2.1
    5    -78.3903154257278345    -5.60e-03  9.59e-04  7.41e-03  5.52e-02  0.850   1.2
    6    -78.3946757890871311    -4.36e-03  7.87e-04  6.15e-03  4.63e-02  0.850   1.9
    7    -78.3981916769799625    -3.52e-03  6.62e-04  5.21e-03  3.90e-02  0.850   2.0
    8    -78.4010661769701187    -2.87e-03  5.61e-04  4.43e-03  3.28e-02  0.850   3.0
    9    -78.4034290955411279    -2.36e-03  4.74e-04  3.74e-03  2.76e-02  0.850   1.2
   10    -78.4053786302702633    -1.95e-03  2.66e-03  2.10e-02  2.31e-02  0.000   1.8
   11    -78.4154554958197139    -1.01e-02  1.40e-04  1.20e-03  1.68e-03  0.000   2.0
                              *** Initializing SOSCF ***
---------------------------------------S-O-S-C-F--------------------------------------
Iteration    Energy (Eh)           Delta-E    RMSDP     MaxDP     MaxGrad    Time(sec)
--------------------------------------------------------------------------------------
   12    -78.4154639884570770    -8.49e-06  3.50e-05  1.82e-04  3.14e-04     2.7
               *** Restarting incremental Fock matrix formation ***
   13    -78.4154433035951257     2.07e-05  3.99e-05  2.68e-04  5.67e-05     1.7
   14    -78.4154433236756745    -2.01e-08  7.96e-06  5.53e-05  3.96e-05     1.9
   15    -78.4154433378538585    -1.42e-08  3.50e-06  2.35e-05  5.66e-06     0.9
   16    -78.4154433371445663     7.09e-10  2.27e-07  1.41e-06  1.08e-06     1.1
                 **** Energy Check signals convergence ****

               *****************************************************
               *                     SUCCESS                       *
               *           SCF CONVERGED AFTER  16 CYCLES          *
               *****************************************************

Recomputing exchange energy using gridx3       ... done (    0.213 sec)
Old exchange energy                            :     -2.923985713 Eh
New exchange energy                            :     -2.923972633 Eh
Exchange energy change after final integration :      0.000013080 Eh
Total energy after final integration           :    -78.415430257 Eh
             **** ENERGY FILE WAS UPDATED (CS_PdOAc_009_freq_01.en.tmp) ****

----------------
TOTAL SCF ENERGY
----------------

Total Energy       :        -78.41543025699576 Eh           -2133.79234 eV

Components:
Nuclear Repulsion  :         33.18860138208805 Eh             903.10776 eV
Electronic Energy  :       -111.60404471923262 Eh           -3036.90045 eV
One Electron Energy:       -169.82748411647785 Eh           -4621.24078 eV
Two Electron Energy:         58.22343939724523 Eh            1584.34033 eV

Virial components:
Potential Energy   :       -155.99181532481231 Eh           -4244.75309 eV
Kinetic Energy     :         77.57638506781656 Eh            2110.96076 eV
Virial Ratio       :          2.01081572940587

DFT components:
N(Alpha)           :        7.999998015996 electrons
N(Beta)            :        7.999998015996 electrons
N(Total)           :       15.999996031991 electrons
E(X)               :       -8.728471734291 Eh       
E(C)               :       -0.500056970579 Eh       
E(XC)              :       -9.228528704870 Eh       

---------------
SCF CONVERGENCE
---------------

  Last Energy change         ...   -7.0929e-10  Tolerance :   1.0000e-08
  Last MAX-Density change    ...    1.4050e-06  Tolerance :   1.0000e-07
  Last RMS-Density change    ...    2.2698e-07  Tolerance :   5.0000e-09
  Last DIIS Error            ...    3.1355e-04  Tolerance :   5.0000e-07
  Last Orbital Gradient      ...    1.0783e-06  Tolerance :   1.0000e-05
  Last Orbital Rotation      ...    1.1377e-06  Tolerance :   1.0000e-05


----------------
ORBITAL ENERGIES
----------------

  NO   OCC          E(Eh)            E(eV) 
   0   2.0000     -10.232009      -278.4271 
   1   2.0000     -10.231189      -278.4048 
   2   2.0000      -0.773510       -21.0483 
   3   2.0000      -0.588838       -16.0231 
   4   2.0000      -0.481284       -13.0964 
   5   2.0000      -0.433197       -11.7879 
   6   2.0000      -0.365647        -9.9498 
   7   2.0000      -0.286574        -7.7981 
   8   0.0000       0.014619         0.3978 
   9   0.0000       0.095769         2.6060 
  10   0.0000       0.113858         3.0982 
  11   0.0000       0.127731         3.4757 
  12   0.0000       0.200132         5.4459 
  13   0.0000       0.335189         9.1210 
  14   0.0000       0.413464        11.2509 
  15   0.0000       0.454390        12.3646 
  16   0.0000       0.458369        12.4729 
  17   0.0000       0.508269        13.8307 
  18   0.0000       0.566236        15.4081 
*Only the first 10 virtual orbitals were printed.

                    ********************************
                    * MULLIKEN POPULATION ANALYSIS *
                    ********************************

-----------------------
MULLIKEN ATOMIC CHARGES
-----------------------
   0 C :   -0.270540
   1 C :   -0.270540
   2 H :    0.135270
   3 H :    0.135270
   4 H :    0.135270
   5 H :    0.135270
Sum of atomic charges:    0.0000000

--------------------------------
MULLIKEN REDUCED ORBITAL CHARGES
--------------------------------
  0 C s       :     3.205514  s :     3.205514
      pz      :     1.024122  p :     3.034755
      px      :     0.994780
      py      :     1.015852
      dz2     :     0.005921  d :     0.030271
      dxz     :     0.005220
      dyz     :     0.014697
      dx2y2   :     0.004434
      dxy     :     0.000000

  1 C s       :     3.205514  s :     3.205514
      pz      :     1.024122  p :     3.034755
      px      :     0.994780
      py      :     1.015852
      dz2     :     0.005921  d :     0.030271
      dxz     :     0.005220
      dyz     :     0.014697
      dx2y2   :     0.004434
      dxy     :    -0.000000

  2 H s       :     0.864730  s :     0.864730

  3 H s       :     0.864730  s :     0.864730

  4 H s       :     0.864730  s :     0.864730

  5 H s       :     0.864730  s :     0.864730



                     *******************************
                     * LOEWDIN POPULATION ANALYSIS *
                     *******************************

----------------------
LOEWDIN ATOMIC CHARGES
----------------------
   0 C :   -0.253287
   1 C :   -0.253287
   2 H :    0.126643
   3 H :    0.126643
   4 H :    0.126643
   5 H :    0.126643

-------------------------------
LOEWDIN REDUCED ORBITAL CHARGES
-------------------------------
  0 C s       :     2.973276  s :     2.973276
      pz      :     1.128409  p :     3.209455
      px      :     0.990718
      py      :     1.090329
      dz2     :     0.018453  d :     0.070556
      dxz     :     0.009282
      dyz     :     0.035015
      dx2y2   :     0.007805
      dxy     :     0.000000

  1 C s       :     2.973276  s :     2.973276
      pz      :     1.128409  p :     3.209455
      px      :     0.990718
      py      :     1.090329
      dz2     :     0.018453  d :     0.070556
      dxz     :     0.009282
      dyz     :     0.035015
      dx2y2   :     0.007805
      dxy     :     0.000000

  2 H s       :     0.873357  s :     0.873357

  3 H s       :     0.873357  s :     0.873357

  4 H s       :     0.873357  s :     0.873357

  5 H s       :     0.873357  s :     0.873357



                      *****************************
                      * MAYER POPULATION ANALYSIS *
                      *****************************

  NA   - Mulliken gross atomic population
  ZA   - Total nuclear charge
  QA   - Mulliken gross atomic charge
  VA   - Mayer's total valence
  BVA  - Mayer's bonded valence
  FA   - Mayer's free valence

  ATOM       NA         ZA         QA         VA         BVA        FA
  0 C      6.2705     6.0000    -0.2705     3.9919     3.9919     0.0000
  1 C      6.2705     6.0000    -0.2705     3.9919     3.9919     0.0000
  2 H      0.8647     1.0000     0.1353     0.9394     0.9394    -0.0000
  3 H      0.8647     1.0000     0.1353     0.9394     0.9394     0.0000
  4 H      0.8647     1.0000     0.1353     0.9394     0.9394    -0.0000
  5 H      0.8647     1.0000     0.1353     0.9394     0.9394     0.0000

  Mayer bond orders larger than 0.100000
B(  0-C ,  1-C ) :   2.1198 B(  0-C ,  2-H ) :   0.9360 B(  0-C ,  3-H ) :   0.9360 
B(  1-C ,  4-H ) :   0.9360 B(  1-C ,  5-H ) :   0.9360 

-------
TIMINGS
-------

Total SCF time: 0 days 0 hours 0 min 28 sec 

Total time                  ....      28.474 sec
Sum of individual times     ....      27.689 sec  ( 97.2%)

SCF preparation             ....       0.637 sec  (  2.2%)
Fock matrix formation       ....      14.015 sec  ( 49.2%)
  Startup                   ....       1.261 sec  (  9.0% of F)
  Split-RI-J                ....       2.101 sec  ( 15.0% of F)
  Chain of spheres X        ....       4.454 sec  ( 31.8% of F)
  XC integration            ....       2.338 sec  ( 16.7% of F)
    XC Preparation          ....       0.000 sec  (  0.0% of XC)
    Basis function eval.    ....       0.204 sec  (  8.7% of XC)
    Density eval.           ....       0.060 sec  (  2.6% of XC)
    XC-Functional eval.     ....       0.111 sec  (  4.8% of XC)
    XC-Potential eval.      ....       0.054 sec  (  2.3% of XC)
Diagonalization             ....       0.000 sec  (  0.0%)
Density matrix formation    ....       1.983 sec  (  7.0%)
Total Energy calculation    ....       0.899 sec  (  3.2%)
Population analysis         ....       0.245 sec  (  0.9%)
Orbital Transformation      ....       0.188 sec  (  0.7%)
Orbital Orthonormalization  ....       0.000 sec  (  0.0%)
DIIS solution               ....       9.169 sec  ( 32.2%)
SOSCF solution              ....       0.554 sec  (  1.9%)
Finished LeanSCF after  28.7 sec

Maximum memory used throughout the entire LEANSCF-calculation: 5.9 MB


           ************************************************************
           *        Program running with 4 parallel MPI-processes     *
           *              working on a common directory               *
           ************************************************************

------------------------------------------------------------------------------
                         ORCA PROPERTY INTEGRAL CALCULATIONS
------------------------------------------------------------------------------

GBWName                                   ... CS_PdOAc_009_freq_01.gbw
Number of atoms                           ...      6
Number of basis functions                 ...     36
Max core memory                           ...   3500 MB

Dipole integrals                          ... YES
Quadrupole integrals                      ...  NO
Linear momentum integrals                 ...  NO
Angular momentum integrals                ...  NO
Higher moments length integrals           ...  NO
Higher moments velocity integrals         ...  NO
Kinetic energy integrals                  ...  NO
GIAO right hand sides                     ...  NO
GIAO dipole derivative integrals          ...  NO
SOC integrals                             ...  NO
EPR diamagnetic integrals (GIAO)          ...  NO
EPR gauge integrals                       ...  NO
Field gradient integrals                  ...  NO (   0 nuclei)
Spin-dipole/Fermi contact integrals       ...  NO (   0 nuclei)
Contact density integrals                 ...  NO (   0 nuclei)
Nucleus-orbit integrals                   ...  NO (   0 nuclei)
Geometric perturbations                   ... YES (   6 nuclei)

Choice of electric origin   ... Center of mass
Position of electric origin ... (  0.0000,  0.3567, -0.4791) 
Choice of magnetic origin   ... GIAO
Position of magnetic origin ... (  0.0000,  0.0000,  0.0000) 

Calculating integrals                     ... Electric Dipole (Length)     done (  0.0 sec)
Calculating integrals                     ... Geometrical perturbation right hand sides

Info: (SHARK/DRIVER/GeoPert/RHS): Found parallel group flag:
                                  Will try to set up 2 WorkingGroups with 2 workers belonging to each group

Info (SHARK/DRIVER/GeoPert/RHS): Found 2 parallel subgroups - adjusting work intervals:
                                 group   0: will be working on atoms    0 to    2
                                 Outputs of groups > 0 will be redirected to CS_PdOAc_009_freq_01.group*.propint.out

                                 group   1: will be working on atoms    3 to    5

-----------------------
GEOMETRIC PERTURBATIONS (6 nuclei)
-----------------------

MaxCore                            ...   3500 MB
Number of batches                  ...      1

Warning: could not find the gridfile in CPSCF-Calc-FXC
         ... constructing integration grid from scratch...
         ... finished setting up the grid
BATCH   0: Atoms    0 -    2 (  9 perturbations)
   => H(core) and overlap derivative integrals     ... done (     0.0 sec)
   => Making and storing internal U-coefficients   ... done (     0.1 sec)
   => RI-J derivative integrals                    ... done (     0.6 sec)
   => RI-J response operators                      ... done (     0.1 sec)
   => Chain of spheres derivative integrals        ... done (     0.4 sec)
   => Chain of spheres response operator           ... done (     0.2 sec)
   => XC derivative integrals                      ... done (     0.6 sec)
   => XC response operators                        ... done (     0.2 sec)
   => Completing and storing right hand sides      ... done (     0.0 sec)
   => Total time for right hand sides =   2.8 sec

  geometrical perturbations done (  3.1 sec)

Property integrals calculated in   3.1 sec

Maximum memory used throughout the entire PROPINT-calculation: 9.3 MB


-------------------------------------------------------------------------------
                          DFT DISPERSION CORRECTION                            
                                                                               
                              DFTD3 V3.1  Rev 1                                
                          USING Becke-Johnson damping                          
-------------------------------------------------------------------------------
The PBE0 functional is recognized
Active option DFTDOPT                   ...         4   

molecular C6(AA) [au] = 294.572317 


            DFT-D V3
 parameters
 s6 scaling factor         :     1.0000 
 a1 scaling factor         :     0.4145 
 s8 scaling factor         :     1.2177 
 a2 scaling factor         :     4.8593 
 ad hoc parameters k1-k3   :    16.0000     1.3333    -4.0000 

 Edisp/kcal,au: -1.191521027826  -0.001898809420 
 E6   /kcal   :  -0.780970571 
 E8   /kcal   :  -0.410550457 
 % E8         :  34.455997604 

-------------------------   ----------------
Dispersion correction           -0.001898809
-------------------------   ----------------


-------------------------   --------------------
FINAL SINGLE POINT ENERGY       -78.417329066416
-------------------------   --------------------



           ************************************************************
           *        Program running with 4 parallel MPI-processes     *
           *              working on a common directory               *
           ************************************************************
------------------------------------------------------------------------------
                            ORCA SCF RESPONSE CALCULATION
------------------------------------------------------------------------------

GBWName                                 ... CS_PdOAc_009_freq_01.gbw
Number of atoms                         ...      6
Number of basis functions               ...     36
Max core memory                         ...   3500 MB

Electric field perturbation             ...  NO
Quadrupolar field perturbation          ...  NO
Magnetic field perturbation (no GIAO)   ...  NO
Magnetic field perturbation (with GIAO) ...  NO
Linear momentum (velocity) perturbation ...  NO
Spin-orbit coupling perturbation        ...  NO
Choice of electric origin               ... Center of mass
Position of electric origin             ...     0.000000     0.356716    -0.479101
Choice of magnetic origin               ... GIAO
Position of magnetic origin             ...     0.000000     0.000000     0.000000
Nuclear geometric perturbations         ... YES (  18 perturbations)
Nucleus-orbit perturbations             ...  NO (   0 perturbations)
Spin-dipole/Fermi contact perturbations ...  NO (   0 perturbations)

Total number of real perturbations      ...     18
Total number of imaginary perturbations ...      0
Total number of triplet perturbations   ...      0
Total number of SOC perturbations       ...      0


Info: (ORCA_SCFRESP): Found parallel group flag:
                      Will try to set up 2 WorkingGroups with 2 workers belonging to each group


Using XC Grid                  ... (CS_PdOAc_009_freq_01.group0.grid_cpscf.tmp) 
Recalculating density on grid  ... (CS_PdOAc_009_freq_01.group0.grho_cpscf0.tmp) done
Calculating the xc-kernel      ... (CS_PdOAc_009_freq_01.group0.fxc_cpscf0.tmp) done

                                **********************
                                * REAL PERTURBATIONS *
                                **********************



-------------------
SHARK CP-SCF DRIVER
-------------------

Dimension of the orbital basis          ...     36
Dimension of the CPSCF-problem          ...    224
Number of operators                     ...      1
Max. number of iterations               ...    128
Max. DIIS space dimension               ...     20
Convergence Tolerance                   ... 1.0e-04
Number of perturbations                 ...     18
Perturbation type                       ... REAL

--------------------
DIIS EQUATION SOLVER
--------------------

  ITERATION   0:   ||err||_max =   1.2634e-01 (   3.0 sec   0/ 18 done)
  ITERATION   1:   ||err||_max =   8.5248e-02 (   2.8 sec   0/ 18 done)
  ITERATION   2:   ||err||_max =   7.0472e-03 (   2.6 sec   0/ 18 done)
  ITERATION   3:   ||err||_max =   2.8978e-03 (   2.1 sec   0/ 18 done)
  ITERATION   4:   ||err||_max =   6.6448e-04 (   2.1 sec   6/ 18 done)
  ITERATION   5:   ||err||_max =   1.5548e-04 (   1.8 sec  12/ 18 done)
  ITERATION   6:   ||err||_max =   2.9746e-05 (   2.4 sec  18/ 18 done)

CP-SCF equations solved in  18.7 sec
Response densities calculated in   0.1 sec

Maximum memory used throughout the entire SCFRESP-calculation: 5.9 MB


           ************************************************************
           *        Program running with 4 parallel MPI-processes     *
           *              working on a common directory               *
           ************************************************************

------------------------------------------------------------------------------
                              ORCA PROPERTY CALCULATIONS
------------------------------------------------------------------------------

GBWName                                 ... CS_PdOAc_009_freq_01.gbw
Number of atoms                         ...      6
Number of basis functions               ...     36
Max core memory                         ...   3500 MB

Electric properties:
Dipole moment                           ... YES
Quadrupole moment                       ...  NO
Static polarizability (Dipole/Dipole)   ...  NO
Static polarizability (Dipole/Quad.)    ...  NO
Static polarizability (Quad./Quad.)     ...  NO
Static polarizability (Velocity)        ...  NO

Atomic electric properties:
Dipole moment                           ...  NO
Quadrupole moment                       ...  NO
Static polarizability                   ...  NO

Choice of electric origin               ... Center of mass
Position of electric origin             ...     0.000000     0.356716    -0.479101

General magnetic properties:
Magnetizability                         ...  NO

EPR properties:
g-Tensor (aka g-matrix)                 ...  NO
Zero-Field splitting spin-orbit         ...  NO
Zero-field splitting spin-spin          ...  NO
Hyperfine couplings                     ...  NO (   0 nuclei)
Quadrupole couplings                    ...  NO (   0 nuclei)
Contact density                         ...  NO (   0 nuclei)

NMR properties:
Chemical shifts                         ...  NO (   0 nuclei)
Spin-rotation constants                 ...  NO (   0 nuclei)
Spin-spin couplings                     ...  NO (   0 nuclei,    0 pairs)

Choice of magnetic origin               ... GIAO
Position of magnetic origin             ...     0.000000     0.000000     0.000000

Properties with geometric perturbations:
SCF Hessian                             ... YES
IR spectrum                             ... YES
VCD spectrum                            ...  NO
X-ray spectroscopy properties:
SCF XES/XAS/RIXS spectra                ...  NO


-------------
DIPOLE MOMENT
-------------

Method             : SCF
Type of density    : Electron Density
Multiplicity       :   1
Irrep              :   0
Energy             :   -78.4154302569957622 Eh
Relativity type    : 
Basis              : AO
                                X                 Y                 Z
Electronic contribution:      0.000000070      -0.000000261       0.000000027
Nuclear contribution   :     -0.000000103       0.000000286      -0.000000022
                        -----------------------------------------
Total Dipole Moment    :     -0.000000033       0.000000025       0.000000004
                        -----------------------------------------
Magnitude (a.u.)       :      0.000000042
Magnitude (Debye)      :      0.000000107



--------------------
Rotational spectrum 
--------------------
 
Rotational constants in cm-1:             4.800886             0.998463             0.826559 
Rotational constants in MHz :        143926.942535         29933.161328         24779.626232 

Dipole components along the rotational axes: 
x,y,z [a.u.] :     0.000000     0.000000     0.000000 
x,y,z [Debye]:     0.000000     0.000000     0.000000 

 

Dipole moment calculation done in   0.1 sec 

-----------
SCF HESSIAN
-----------

Occupied/Occupied contributions to the Hessian:
   => Occupied/Occupied contributions              ... done (  0.9 sec)
Perturbed density contributions to the Hessian:
   => Perturbed density contributions              ... done (  1.0 sec)
Explicit contributions to the Hessian:
   => Nuclear repulsion Hessian                    ... done (  0.0 sec)
   => HCore and overlap Hessian                    ... done (  0.0 sec)
   => RI-J Hessian                                 ... done (  1.0 sec)
   => COSX Hessian                                 ... done (  4.2 sec)
   => XC-Hessian                                   ... done (  0.9 sec)
   => Van der Waals-Hessian                        ... done (  0.4 sec)
   => Explicit contributions done
Dipole derivatives                                 ... done (  0.1 sec)
Mass weighting the Hessian           ... done
Calculating normal modes             ... done
Scaling frequencies                  ... done

-----------------------
VIBRATIONAL FREQUENCIES
-----------------------

Scaling factor for frequencies =  1.000000000  (already applied!)

     0:       0.00 cm**-1
     1:       0.00 cm**-1
     2:       0.00 cm**-1
     3:       0.00 cm**-1
     4:       0.00 cm**-1
     5:       0.00 cm**-1
     6:     821.87 cm**-1
     7:     965.91 cm**-1
     8:     968.13 cm**-1
     9:    1060.13 cm**-1
    10:    1226.02 cm**-1
    11:    1372.58 cm**-1
    12:    1452.16 cm**-1
    13:    1724.36 cm**-1
    14:    3146.92 cm**-1
    15:    3163.79 cm**-1
    16:    3226.25 cm**-1
    17:    3248.32 cm**-1


------------
NORMAL MODES
------------

These modes are the Cartesian displacements weighted by the diagonal matrix
M(i,i)=1/sqrt(m[i]) where m[i] is the mass of the displaced atom
Thus, these vectors are normalized but *not* orthogonal

                  0          1          2          3          4          5    
      0       0.000000   0.000000   0.000000   0.000000   0.000000   0.000000
      1       0.000000   0.000000   0.000000   0.000000   0.000000   0.000000
      2       0.000000   0.000000   0.000000   0.000000   0.000000   0.000000
      3       0.000000   0.000000   0.000000   0.000000   0.000000   0.000000
      4       0.000000   0.000000   0.000000   0.000000   0.000000   0.000000
      5       0.000000   0.000000   0.000000   0.000000   0.000000   0.000000
      6       0.000000   0.000000   0.000000   0.000000   0.000000   0.000000
      7       0.000000   0.000000   0.000000   0.000000   0.000000   0.000000
      8       0.000000   0.000000   0.000000   0.000000   0.000000   0.000000
      9       0.000000   0.000000   0.000000   0.000000   0.000000   0.000000
     10       0.000000   0.000000   0.000000   0.000000   0.000000   0.000000
     11       0.000000   0.000000   0.000000   0.000000   0.000000   0.000000
     12       0.000000   0.000000   0.000000   0.000000   0.000000   0.000000
     13       0.000000   0.000000   0.000000   0.000000   0.000000   0.000000
     14       0.000000   0.000000   0.000000   0.000000   0.000000   0.000000
     15       0.000000   0.000000   0.000000   0.000000   0.000000   0.000000
     16       0.000000   0.000000   0.000000   0.000000   0.000000   0.000000
     17       0.000000   0.000000   0.000000   0.000000   0.000000   0.000000
                  6          7          8          9         10         11    
      0       0.000000  -0.083343  -0.152905  -0.000000   0.000000   0.000000
      1      -0.039463  -0.000000  -0.000000   0.000000  -0.153511   0.000001
      2      -0.000000   0.000000  -0.000000  -0.000000  -0.000000  -0.082608
      3      -0.000000  -0.083333   0.152912   0.000000  -0.000000  -0.000000
      4      -0.039463   0.000000  -0.000000  -0.000000   0.153511  -0.000000
      5       0.000000   0.000000  -0.000000  -0.000000   0.000000   0.082607
      6      -0.000001   0.496531   0.488149  -0.500000  -0.000001   0.000000
      7       0.235113  -0.000000   0.000000  -0.000001   0.138740  -0.205304
      8       0.440388  -0.000000   0.000001  -0.000001   0.467938  -0.452147
      9       0.000000   0.496530   0.488149   0.500000   0.000001  -0.000000
     10       0.235114   0.000000   0.000000  -0.000001   0.138743   0.205302
     11      -0.440390  -0.000000  -0.000001   0.000001  -0.467944  -0.452143
     12       0.000001   0.496500  -0.488190   0.500000   0.000001  -0.000000
     13       0.235114  -0.000000   0.000000  -0.000000  -0.138741  -0.205307
     14      -0.440389   0.000000  -0.000000   0.000000   0.467940   0.452151
     15      -0.000000   0.496500  -0.488190  -0.500000  -0.000001   0.000000
     16       0.235115   0.000000   0.000000  -0.000000  -0.138741   0.205308
     17       0.440391  -0.000000   0.000001   0.000000  -0.467938   0.452152
                 12         13         14         15         16         17    
      0      -0.000000   0.000000  -0.000000   0.000000  -0.000000  -0.000000
      1       0.000000   0.000000  -0.000000  -0.000000  -0.070458   0.070855
      2       0.068731   0.344625  -0.042637  -0.056312   0.000000  -0.000000
      3       0.000000   0.000000  -0.000000   0.000000  -0.000000   0.000000
      4      -0.000000  -0.000000  -0.000000  -0.000000   0.070454   0.070859
      5       0.068733  -0.344625  -0.042634   0.056314   0.000000   0.000000
      6      -0.000000  -0.000000   0.000000  -0.000000   0.000000   0.000000
      7      -0.282763  -0.388827  -0.429622  -0.427877   0.422368  -0.422142
      8      -0.409497  -0.198573   0.254024   0.255579  -0.262940   0.263200
      9       0.000000  -0.000000   0.000000  -0.000000  -0.000000  -0.000000
     10       0.282762   0.388826   0.429624   0.427879   0.422367  -0.422138
     11      -0.409495  -0.198572   0.254025   0.255580   0.262939  -0.263198
     12       0.000000  -0.000000   0.000000  -0.000000  -0.000000  -0.000000
     13       0.282760  -0.388826   0.429600  -0.427901  -0.422345  -0.422164
     14      -0.409490   0.198572   0.254011  -0.255593  -0.262926  -0.263213
     15      -0.000000   0.000000   0.000000  -0.000000   0.000000   0.000000
     16      -0.282760   0.388826  -0.429600   0.427903  -0.422344  -0.422163
     17      -0.409489   0.198571   0.254011  -0.255595   0.262925   0.263213


-----------
IR SPECTRUM
-----------

 Mode   freq       eps      Int      T**2         TX        TY        TZ
       cm**-1   L/(mol*cm) km/mol    a.u.
----------------------------------------------------------------------------
  6:    821.87   0.000282    1.43  0.000107  ( 0.000000  0.010356 -0.000000)
  7:    965.91   0.019220   97.13  0.006209  ( 0.078800 -0.000000 -0.000000)
  8:    968.13   0.000000    0.00  0.000000  (-0.000003  0.000000 -0.000000)
  9:   1060.13   0.000000    0.00  0.000000  ( 0.000000 -0.000000  0.000000)
 10:   1226.02   0.000000    0.00  0.000000  (-0.000000  0.000000 -0.000000)
 11:   1372.58   0.000000    0.00  0.000000  (-0.000000 -0.000000  0.000000)
 12:   1452.16   0.001754    8.87  0.000377  (-0.000000  0.000000 -0.019417)
 13:   1724.36   0.000000    0.00  0.000000  (-0.000000  0.000000 -0.000000)
 14:   3146.92   0.002160   10.91  0.000214  ( 0.000000 -0.000000 -0.014635)
 15:   3163.79   0.000000    0.00  0.000000  (-0.000000 -0.000000  0.000000)
 16:   3226.25   0.000000    0.00  0.000000  ( 0.000000 -0.000000  0.000000)
 17:   3248.32   0.002565   12.96  0.000246  (-0.000000  0.015698 -0.000000)

* The epsilon (eps) is given for a Dirac delta lineshape.
** The dipole moment derivative (T) already includes vibrational overlap.

The first frequency considered to be a vibration is 6
The total number of vibrations considered is 12


--------------------------
THERMOCHEMISTRY AT 298.15K
--------------------------

Temperature         ...   298.15 K
Pressure            ...     1.00 atm
Total Mass          ...    28.05 AMU
Quasi RRHO          ...     True
Cut-Off Frequency   ...     1.00 cm^-1

Throughout the following assumptions are being made:
  (1) The electronic state is orbitally nondegenerate
  (2) There are no thermally accessible electronically excited states
  (3) Hindered rotations indicated by low frequency modes are not
      treated as such but are treated as vibrations and this may
      cause some error
  (4) All equations used are the standard statistical mechanics
      equations for an ideal gas
  (5) All vibrations are strictly harmonic

freq.     821.87  E(vib)   ...       0.05 
freq.     965.91  E(vib)   ...       0.03 
freq.     968.13  E(vib)   ...       0.03 
freq.    1060.13  E(vib)   ...       0.02 
freq.    1226.02  E(vib)   ...       0.01 
freq.    1372.58  E(vib)   ...       0.01 
freq.    1452.16  E(vib)   ...       0.00 
freq.    1724.36  E(vib)   ...       0.00 
freq.    3146.92  E(vib)   ...       0.00 
freq.    3163.79  E(vib)   ...       0.00 
freq.    3226.25  E(vib)   ...       0.00 
freq.    3248.32  E(vib)   ...       0.00 

------------
INNER ENERGY
------------

The inner energy is: U= E(el) + E(ZPE) + E(vib) + E(rot) + E(trans)
    E(el)   - is the total energy from the electronic structure calculation
              = E(kin-el) + E(nuc-el) + E(el-el) + E(nuc-nuc)
    E(ZPE)  - the the zero temperature vibrational energy from the frequency calculation
    E(vib)  - the the finite temperature correction to E(ZPE) due to population
              of excited vibrational states
    E(rot)  - is the rotational thermal energy
    E(trans)- is the translational thermal energy

Summary of contributions to the inner energy U:
Electronic energy                ...    -78.41732907 Eh
Zero point energy                ...      0.05097729 Eh      31.99 kcal/mol
Thermal vibrational correction   ...      0.00021651 Eh       0.14 kcal/mol
Thermal rotational correction    ...      0.00141627 Eh       0.89 kcal/mol
Thermal translational correction ...      0.00141627 Eh       0.89 kcal/mol
-----------------------------------------------------------------------
Total thermal energy                    -78.36330273 Eh


Summary of corrections to the electronic energy:
(perhaps to be used in another calculation)
Total thermal correction                  0.00304905 Eh       1.91 kcal/mol
Non-thermal (ZPE) correction              0.05097729 Eh      31.99 kcal/mol
-----------------------------------------------------------------------
Total correction                          0.05402634 Eh      33.90 kcal/mol


--------
ENTHALPY
--------

The enthalpy is H = U + kB*T
                kB is Boltzmann's constant
Total thermal energy              ...    -78.36330273 Eh 
Thermal Enthalpy correction       ...      0.00094421 Eh       0.59 kcal/mol
-----------------------------------------------------------------------
Total Enthalpy                    ...    -78.36235852 Eh


Note: Rotational entropy computed according to Herzberg 
Infrared and Raman Spectra, Chapter V,1, Van Nostrand Reinhold, 1945 
Point Group:  D2h, Symmetry Number:   4  
Rotational constants in cm-1:     4.800886     0.998463     0.826559 

Vibrational entropy computed according to the QRRHO of S. Grimme
Chem.Eur.J. 2012 18 9955 using a reference frequency of 100.0 cm-1


-------
ENTROPY
-------

The entropy contributions are T*S = T*(S(el)+S(vib)+S(rot)+S(trans))
     S(el)   - electronic entropy
     S(vib)  - vibrational entropy
     S(rot)  - rotational entropy
     S(trans)- translational entropy
The entropies will be listed as multiplied by the temperature to get
units of energy

Electronic entropy                ...      0.00000000 Eh      0.00 kcal/mol
Vibrational entropy               ...      0.00026312 Eh      0.17 kcal/mol
Rotational entropy                ...      0.00755193 Eh      4.74 kcal/mol
Translational entropy             ...      0.01707111 Eh     10.71 kcal/mol
-----------------------------------------------------------------------
Final entropy term                ...      0.02488616 Eh     15.62 kcal/mol

In case the symmetry of your molecule has not been determined correctly
or in case you have a reason to use a different symmetry number we print 
out the resulting rotational entropy values for sn=1,12:

 non-linear molecules -----------------------------------
|  sn= 1 | S(rot)=       0.00886085 Eh      5.56 kcal/mol|
|  sn= 2 | S(rot)=       0.00820639 Eh      5.15 kcal/mol|
|  sn= 3 | S(rot)=       0.00782356 Eh      4.91 kcal/mol|
|  sn= 4 | S(rot)=       0.00755193 Eh      4.74 kcal/mol|
|  sn= 5 | S(rot)=       0.00734125 Eh      4.61 kcal/mol|
|  sn= 6 | S(rot)=       0.00716910 Eh      4.50 kcal/mol|
|  sn= 7 | S(rot)=       0.00702355 Eh      4.41 kcal/mol|
|  sn= 8 | S(rot)=       0.00689748 Eh      4.33 kcal/mol|
|  sn= 9 | S(rot)=       0.00678627 Eh      4.26 kcal/mol|
|  sn=10 | S(rot)=       0.00668679 Eh      4.20 kcal/mol|
|  sn=11 | S(rot)=       0.00659680 Eh      4.14 kcal/mol|
|  sn=12 | S(rot)=       0.00651464 Eh      4.09 kcal/mol|
 linear molecules ---------------------------------------
|  Dinfh | S(rot)=       0.00550566 Eh      3.45 kcal/mol|
|  Cinfv | S(rot)=       0.00616011 Eh      3.87 kcal/mol|
 --------------------------------------------------------


-------------------
GIBBS FREE ENERGY
-------------------

The Gibbs free energy is G = H - T*S

Total enthalpy                    ...    -78.36235852 Eh 
Total entropy correction          ...     -0.02488616 Eh    -15.62 kcal/mol
-----------------------------------------------------------------------
Final Gibbs free energy         ...    -78.38724468 Eh

For completeness - the Gibbs free energy minus the electronic energy
G-E(el)                           ...      0.03008438 Eh     18.88 kcal/mol


Maximum memory used throughout the entire PROP-calculation: 25.5 MB

--------------------------------
SUGGESTED CITATIONS FOR THIS RUN
--------------------------------

Below you find a list of papers that are relevant to this ORCA run
We neither can nor want to force you to cite these papers, but we appreciate if you do
You receive ORCA, which is the product of decades of hard work by many enthusiastic individuals, for free
The only thing we kindly ask in return is that you cite our papers,
We deeply appreciate it, if you show your appreciation for ORCA by not just citing the generic ORCA reference.

Please note that relegating all ORCA citations to the supporting information does *not* help us.
SI sections are not indexed - citations you put there will not count into any citation statistics
But we need these citations in order to attract the funding resources that allow us to do what we are doing

Therefore, if you are a happy ORCA user, please consider citing a few of the papers listed below in the main body of your paper

In addition to the list printed below, the program has created the file CS_PdOAc_009_freq_01.bibtex that contains the list in bibtex format
You can import this file easily into all common literature databanks and citation aid programs


List of essential papers. We consider these as the minimum necessary citations

  1. Neese,F.
     Software update: the ORCA program system, version 5.0
     WIRES Comput. Molec. Sci., 2022 12(1)e1606
     doi.org/10.1002/wcms.1606

List of papers to cite with high priority. The work reported in these papers was absolutely
necessary for this run to complete.
Our perspective: the developers of density functionals and basis sets usually get cited in chemistry papers
Good! But without the algorithms to do something with them, the functionals or basis sets would not do anything.
Hence, in our opinion, the algorithm design and method developments papers are equally worthy of getting cited

  1. Neese,F.
     An improvement of the resolution of the identity approximation for the formation of the Coulomb matrix
     J. Comp. Chem., 2003 24(14)1740-1747
     doi.org/10.1002/jcc.10318
  2. Neese,F.; Wennmohs,F.; Hansen,A.; Becker,U.
     Efficient, approximate and parallel Hartree-Fock and hybrid DFT calculations. A 'chain-of-spheres' algorithm for the Hartree-Fock exchange
     Chem. Phys., 2009 356(1-3)98-109
     doi.org/10.1016/j.chemphys.2008.10.036
  3. Bykov,D.; Petrenko,T.; Izsak,R.; Kossmann,S.; Becker,U.; Valeev,E.; Neese,F.
     Efficient implementation of the analytic second derivatives of Hartree-Fock and hybrid DFT energies: a detailed analysis of different approximations
     Molec. Phys., 2015 113 1961-1977
     doi.org/10.1080/00268976.2015.1025114
  4. Helmich-Paris,B.; de Souza,B.; Neese,F.; Izsák,R.
     An improved chain of spheres for exchange algorithm
     J. Chem. Phys., 2021 155 104109
     doi.org/doi: 10.1063/5.0058766.
  5. Neese,F.
     The SHARK Integral Generation and Digestion System
     J. Comp. Chem., 2022  1-16
     doi.org/10.1002/jcc.26942
  6. Grimme,S.; Antony,J.; Ehrlich,S.; Krieg,H.
     A consistent and accurate ab initio parametrization of density functional dispersion correction (DFT-D) for the 94 elements H-Pu
     J. Chem. Phys., 2010 132 154104-XXXX
     doi.org/10.1063/1.3382344
  7. Grimme,S.; Ehrlich,S.; Goerigk,L.
     Effect of the damping function in dispersion corrected density functional theory
     J. Comput. Chem., 2011 32(7)1456-1465
     doi.org/10.1002/jcc.21759

List of suggested additional citations. These are papers that are important in the 'surrounding' of 
of this run, or papers that preceded the highly important papers. If you like your results we are grateful for a citation.

  1. Izsak,R.; Neese,F.
     An overlap fitted chain of spheres exchange method
     J. Chem. Phys., 2011 135 144105
     doi.org/10.1063/1.3646921
  2. Izsak,R.; Hansen,A.; Neese,F.
     The resolution of identity and chain of spheres approximations for the LPNO-CCSD singles Fock term
     Molec. Phys., 2012 110 2413-2417
     doi.org/10.1080/00268976.2012.687466
  3. Neese,F.
     The ORCA program system
     WIRES Comput. Molec. Sci., 2012 2(1)73-78
     doi.org/10.1002/wcms.81
  4. Izsak,R.; Neese,F.; Klopper,W.
     Robust fitting techniques in the chain of spheres approximation to the Fock exchange: The role of the complementary space
     J. Chem. Phys., 2013 139 
     doi.org/10.1063/1.4819264
  5. Neese,F.
     Software update: the ORCA program system, version 4.0
     WIRES Comput. Molec. Sci., 2018 8(1)1-6
     doi.org/10.1002/wcms.1327
  6. Neese,F.; Wennmohs,F.; Becker,U.; Riplinger,C.
     The ORCA quantum chemistry program package
     J. Chem. Phys., 2020 152 Art. No. L224108
     doi.org/10.1063/5.0004608

List of optional additional citations

  1. Neese,F.
     Approximate second-order SCF convergence for spin unrestricted wavefunctions
     Chem. Phys. Lett., 2000 325(1-3)93-98
     doi.org/10.1016/s0009-2614(00)00662-x

Timings for individual modules:

Sum of individual times          ...       71.801 sec (=   1.197 min)
Startup calculation              ...        2.437 sec (=   0.041 min)   3.4 %
SCF iterations                   ...       32.119 sec (=   0.535 min)  44.7 %
Property integrals               ...        4.777 sec (=   0.080 min)   6.7 %
SCF Response                     ...       21.042 sec (=   0.351 min)  29.3 %
Property calculations            ...       11.425 sec (=   0.190 min)  15.9 %
                             ****ORCA TERMINATED NORMALLY****
TOTAL RUN TIME: 0 days 0 hours 1 minutes 14 seconds 593 msec
